 Gaussian 16, Revision C.01,
 Gaussian 16:  ES64L-G16RevC.01  3-Jul-2019

 ------------------------------
 # CAM-B3LYP/6-31+G(d) Opt Freq
 ------------------------------

 ----------------------------------------------------------
 Ground State Calculation for 1_C5H5CN in CAM-B3LYP/6-31+Gd
 ----------------------------------------------------------
 Symbolic Z-matrix:
 Charge =  0 Multiplicity = 1

 SCF Done:  E(RCAM-B3LYP) =  -286.188705786     A.U. after   14 cycles
 SCF Done:  E(RCAM-B3LYP) =  -286.198303663     A.U. after   14 cycles
 SCF Done:  E(RCAM-B3LYP) =  -286.198562944     A.U. after   13 cycles
 SCF Done:  E(RCAM-B3LYP) =  -286.198591713     A.U. after   11 cycles
 SCF Done:  E(RCAM-B3LYP) =  -286.198594349     A.U. after   11 cycles
 SCF Done:  E(RCAM-B3LYP) =  -286.198594902     A.U. after    9 cycles
 Optimization completed.
    -- Stationary point found.
 Normal termination of Gaussian 16 at Sat Jan 27 00:12:20 2024.

 ----------------------------------------------------------------------
 #N Geom=AllCheck Guess=TCheck SCRF=Check GenChk RCAM-B3LYP/6-31+G(d) F
 req
 ----------------------------------------------------------------------

 Structure from the checkpoint file:  "1_C5H5CN_CAM-B3LYP.chk"
 ----------------------------------------------------------
 Ground State Calculation for 1_C5H5CN in CAM-B3LYP/6-31+Gd
 ----------------------------------------------------------
 Charge =  0 Multiplicity = 1

                         Standard orientation:
 ---------------------------------------------------------------------
 Center     Atomic      Atomic             Coordinates (Angstroms)
 Number     Number       Type             X           Y           Z
 ---------------------------------------------------------------------
      1          6           0       -0.490642   -1.174375   -0.000050
      2          1           0       -0.301251   -1.803369   -0.880073
      3          1           0       -0.301190   -1.803470    0.879883
      4          6           0        0.373208    0.059861    0.000016
      5          6           0       -0.415713    1.158049   -0.000026
      6          1           0       -0.067755    2.184408   -0.000045
      7          6           0       -1.875617   -0.602871    0.000056
      8          1           0       -2.773613   -1.208937    0.000091
      9          6           0       -1.814610    0.742092   -0.000004
     10          1           0       -2.655395    1.425542   -0.000008
     11          6           0        1.794874    0.034044    0.000018
     12          7           0        2.952885   -0.013568    0.000013
 ---------------------------------------------------------------------

 SCF Done:  E(RCAM-B3LYP) =  -286.198594902     A.U. after    1 cycles

 The electronic state is 1-A.
 Alpha  occ. eigenvalues --  -14.41786 -10.31496 -10.31219 -10.30402 -10.29855
 Alpha  occ. eigenvalues --  -10.29439 -10.29046  -0.99956  -0.97553  -0.84107
 Alpha  occ. eigenvalues --   -0.82099  -0.70218  -0.64835  -0.62914  -0.54232
 Alpha  occ. eigenvalues --   -0.52086  -0.48631  -0.47975  -0.45904  -0.43705
 Alpha  occ. eigenvalues --   -0.43551  -0.39734  -0.38916  -0.30360
 Alpha virt. eigenvalues --   -0.02735   0.02483   0.04484   0.04539   0.06020
 Alpha virt. eigenvalues --    0.06303   0.06593   0.06712   0.07992   0.08897
 Alpha virt. eigenvalues --    0.10179   0.10695   0.10924   0.11066   0.14075

 Mulliken charges:
               1
     1  C   -1.048993
     2  H    0.253910
     3  H    0.253902
     4  C    0.667789
     5  C   -0.047164
     6  H    0.212738
     7  C    0.147560
     8  H    0.202863
     9  C   -0.285034
    10  H    0.200594
    11  C    0.009959
    12  N   -0.568125
 Sum of Mulliken charges =  -0.00000

 Dipole moment (field-independent basis, Debye):
    X=             -4.6963    Y=             -0.2647    Z=             -0.0001  Tot=              4.7038
 Quadrupole moment (field-independent basis, Debye-Ang):
   XX=            -53.0049   YY=            -35.3820   ZZ=            -42.6120
   XY=              0.2913   XZ=             -0.0001   YZ=              0.0000

  Exact polarizability:     101.960      -3.062      68.911      -0.000      -0.000      42.735
 Approx polarizability:     118.614      -6.910      86.691      -0.000      -0.001      51.432

                      1                      2                      3
                      A                      A                      A
 Frequencies --    160.8021               172.1448               349.2606
 Red. masses --      5.1495                 5.7559                 1.7372
 Frc consts  --      0.0785                 0.1005                 0.1249
 IR Inten    --      2.5656                 5.5806                 4.7593

                      4                      5                      6
                      A                      A                      A
 Frequencies --    512.1129               542.2804               543.1006
 Red. masses --      3.3962                 7.7664                 3.3493
 Frc consts  --      0.5248                 1.3456                 0.5821
 IR Inten    --      5.5504                 2.4732                 9.8317

                      7                      8                      9
                      A                      A                      A
 Frequencies --    566.7296               711.4207               831.3826
 Red. masses --      7.5858                 1.2302                 6.0352
 Frc consts  --      1.4355                 0.3668                 2.4578
 IR Inten    --      0.7162                48.4736                 9.9051

                     10                     11                     12
                      A                      A                      A
 Frequencies --    904.9781               932.5143               941.7037
 Red. masses --      3.9124                 2.1993                 1.2927
 Frc consts  --      1.8878                 1.1268                 0.6754
 IR Inten    --      2.2320                 4.7839                21.0326

                     13                     14                     15
                      A                      A                      A
 Frequencies --    984.4567               986.5195              1038.1286
 Red. masses --      1.7897                 1.3817                 1.7398
 Frc consts  --      1.0219                 0.7922                 1.1047
 IR Inten    --     14.1570                 0.4997                13.2275

                     16                     17                     18
                      A                      A                      A
 Frequencies --   1142.3328              1152.4393              1207.6759
 Red. masses --      1.2200                 1.1286                 2.9323
 Frc consts  --      0.9380                 0.8831                 2.5197
 IR Inten    --      0.4439                 0.1775                 7.5873

                     19                     20                     21
                      A                      A                      A
 Frequencies --   1287.5389              1351.0942              1414.0115
 Red. masses --      1.3764                 3.2530                 1.9745
 Frc consts  --      1.3444                 3.4987                 2.3260
 IR Inten    --      0.0905                 3.3553                10.0881

                     22                     23                     24
                      A                      A                      A
 Frequencies --   1447.2408              1600.2211              1687.3774
 Red. masses --      1.1357                 6.9315                 5.8353
 Frc consts  --      1.4015                10.4577                 9.7891
 IR Inten    --     19.4729                14.5201                 0.7009

                     25                     26                     27
                      A                      A                      A
 Frequencies --   2384.5508              3074.6529              3108.1392
 Red. masses --     12.6715                 1.0618                 1.1005
 Frc consts  --     42.4513                 5.9138                 6.2637
 IR Inten    --     74.9811                 0.7118                 1.3086

                     28                     29                     30
                      A                      A                      A
 Frequencies --   3250.9979              3263.5737              3275.0881
 Red. masses --      1.0884                 1.0958                 1.1050
 Frc consts  --      6.7777                 6.8765                 6.9833
 IR Inten    --      3.2766                 4.2861                 4.1136

 - Thermochemistry -
 -------------------
 Temperature   298.150 Kelvin.  Pressure   1.00000 Atm.
 Atom     1 has atomic number  6 and mass  12.00000

 Molecular mass:    91.04220 amu.
 Principal axes and moments of inertia in atomic units:
                           1         2         3
     Eigenvalues --   214.62519 947.503671150.98112
           X            1.00000   0.00284  -0.00000
           Y           -0.00284   1.00000   0.00000
           Z            0.00000  -0.00000   1.00000
 This molecule is an asymmetric top.
 Rotational symmetry number  1.
 Rotational temperatures (Kelvin)      0.40356     0.09141     0.07525
 Rotational constants (GHZ):           8.40880     1.90473     1.56800
 Zero-point vibrational energy     244184.6 (Joules/Mol)
                                   58.36151 (Kcal/Mol)
 Warning -- explicit consideration of   7 degrees of freedom as
           vibrations may cause significant error
 Vibrational temperatures:    231.36   247.68   502.51   736.82   780.22
          (Kelvin)            781.40   815.40  1023.58  1196.17  1302.06
                             1341.68  1354.90  1416.41  1419.38  1493.64
                             1643.56  1658.10  1737.58  1852.48  1943.92
                             2034.45  2082.26  2302.36  2427.76  3430.84
                             4423.74  4471.92  4677.46  4695.55  4712.12

 Zero-point correction=                           0.093005 (Hartree/Particle)
 Thermal correction to Energy=                    0.098745
 Thermal correction to Enthalpy=                  0.099689
 Thermal correction to Gibbs Free Energy=         0.063513
 Sum of electronic and zero-point Energies=           -286.105590
 Sum of electronic and thermal Energies=              -286.099850
 Sum of electronic and thermal Enthalpies=            -286.098906
 Sum of electronic and thermal Free Energies=         -286.135082

                     E (Thermal)             CV                S
                      KCal/Mol        Cal/Mol-Kelvin    Cal/Mol-Kelvin
 Total                   61.963             21.119             76.140
 Electronic               0.000              0.000              0.000
 Translational            0.889              2.981             39.438
 Rotational               0.889              2.981             26.951
 Vibrational             60.186             15.157              9.751
 Vibration     1          0.622              1.890              2.540
 Vibration     2          0.626              1.877              2.412
 Vibration     3          0.727              1.577              1.170
 Vibration     4          0.867              1.223              0.629
 Vibration     5          0.897              1.157              0.560
 Vibration     6          0.898              1.155              0.559
 Vibration     7          0.923              1.103              0.511

 Optimization completed.
    -- Stationary point found.
 Normal termination of Gaussian 16 at Sat Jan 27 00:18:12 2024.
