 Gaussian 16, Revision C.01,
 Gaussian 16:  ES64L-G16RevC.01  3-Jul-2019

 ----------------------------------------
 # opt freq b3lyp/3-21g geom=connectivity
 ----------------------------------------

 -------------------
 Title Card Required
 -------------------
 Symbolic Z-matrix:
 Charge =  0 Multiplicity = 1

 SCF Done:  E(RB3LYP) =  -284.764694640     A.U. after   14 cycles
 SCF Done:  E(RB3LYP) =  -284.776037988     A.U. after   15 cycles
 SCF Done:  E(RB3LYP) =  -284.776392222     A.U. after   13 cycles
 SCF Done:  E(RB3LYP) =  -284.776420333     A.U. after   12 cycles
 SCF Done:  E(RB3LYP) =  -284.776441114     A.U. after   11 cycles
 SCF Done:  E(RB3LYP) =  -284.776441731     A.U. after    8 cycles
 Optimization completed.
    -- Stationary point found.
 Normal termination of Gaussian 16 at Fri Dec 22 00:17:33 2023.

 -----------------------------------------------------------------
 #N Geom=AllCheck Guess=TCheck SCRF=Check GenChk RB3LYP/3-21G Freq
 -----------------------------------------------------------------

 Structure from the checkpoint file:  "1_C5H5CN_B3LYP.chk"
 -------------------
 Title Card Required
 -------------------
 Charge =  0 Multiplicity = 1

                         Standard orientation:
 ---------------------------------------------------------------------
 Center     Atomic      Atomic             Coordinates (Angstroms)
 Number     Number       Type             X           Y           Z
 ---------------------------------------------------------------------
      1          6           0       -0.488123   -1.185992    0.000009
      2          1           0       -0.297974   -1.801452   -0.889473
      3          1           0       -0.297986   -1.801433    0.889508
      4          6           0        0.386664    0.067152   -0.000003
      5          6           0       -0.416077    1.165803    0.000006
      6          1           0       -0.078439    2.191868    0.000009
      7          6           0       -1.887798   -0.606712   -0.000010
      8          1           0       -2.780549   -1.214572   -0.000017
      9          6           0       -1.822688    0.743862    0.000000
     10          1           0       -2.657994    1.428473   -0.000001
     11          6           0        1.792918    0.030206   -0.000004
     12          7           0        2.960509   -0.012686   -0.000003
 ---------------------------------------------------------------------

 SCF Done:  E(RB3LYP) =  -284.776441731     A.U. after    1 cycles

 The electronic state is 1-A.
 Alpha  occ. eigenvalues --  -14.25151 -10.17285 -10.16261 -10.15987 -10.15710
 Alpha  occ. eigenvalues --  -10.15154 -10.14832  -0.92253  -0.88961  -0.75805
 Alpha  occ. eigenvalues --   -0.73448  -0.62701  -0.57157  -0.55234  -0.46755
 Alpha  occ. eigenvalues --   -0.45321  -0.41878  -0.41099  -0.39050  -0.36642
 Alpha  occ. eigenvalues --   -0.34455  -0.32596  -0.32176  -0.24048
 Alpha virt. eigenvalues --   -0.05997   0.03779   0.03910   0.11602   0.12315
 Alpha virt. eigenvalues --    0.14946   0.16808   0.17326   0.18654   0.20230
 Alpha virt. eigenvalues --    0.22232   0.27763   0.35658   0.37783   0.49643

 Mulliken charges:
               1
     1  C   -0.442748
     2  H    0.247901
     3  H    0.247903
     4  C    0.061953
     5  C   -0.130462
     6  H    0.205224
     7  C   -0.151902
     8  H    0.197722
     9  C   -0.181217
    10  H    0.195625
    11  C    0.240988
    12  N   -0.490987
 Sum of Mulliken charges =   0.00000

 Dipole moment (field-independent basis, Debye):
    X=             -4.2049    Y=             -0.3238    Z=              0.0000  Tot=              4.2173
 Quadrupole moment (field-independent basis, Debye-Ang):
   XX=            -50.0799   YY=            -34.5990   ZZ=            -42.1432
   XY=              0.3066   XZ=              0.0000   YZ=             -0.0000

  Exact polarizability:      89.771      -2.633      58.893       0.000       0.000      24.644
 Approx polarizability:     161.309     -10.341      98.008       0.000       0.000      32.649

                      1                      2                      3
                      A                      A                      A
 Frequencies --    166.7839               189.1580               352.6108
 Red. masses --      4.9959                 5.6387                 1.7333
 Frc consts  --      0.0819                 0.1189                 0.1270
 IR Inten    --      1.7151                 3.3784                10.4061

                      4                      5                      6
                      A                      A                      A
 Frequencies --    525.8698               545.5413               606.9537
 Red. masses --      2.6281                 7.9178                 7.7211
 Frc consts  --      0.4282                 1.3884                 1.6759
 IR Inten    --      0.8399                 2.2138                 0.3890

                      7                      8                      9
                      A                      A                      A
 Frequencies --    621.6459               717.4482               845.4068
 Red. masses --      3.7627                 1.2821                 5.9113
 Frc consts  --      0.8567                 0.3888                 2.4892
 IR Inten    --     21.1038                43.5782                 6.1636

                     10                     11                     12
                      A                      A                      A
 Frequencies --    901.8835               927.6912               937.9828
 Red. masses --      4.3881                 2.0833                 1.4100
 Frc consts  --      2.1029                 1.0564                 0.7309
 IR Inten    --      4.1249                 9.2662                11.4920

                     13                     14                     15
                      A                      A                      A
 Frequencies --    955.8268               985.6742              1014.7563
 Red. masses --      2.2688                 1.3630                 2.2692
 Frc consts  --      1.2213                 0.7802                 1.3767
 IR Inten    --     12.3045                 0.0000                10.2760

                     16                     17                     18
                      A                      A                      A
 Frequencies --   1152.1369              1182.5790              1195.8138
 Red. masses --      1.2305                 1.1246                 2.8452
 Frc consts  --      0.9624                 0.9266                 2.3971
 IR Inten    --      0.0946                 0.1761                 8.3900

                     19                     20                     21
                      A                      A                      A
 Frequencies --   1274.3651              1306.1705              1392.7592
 Red. masses --      2.0373                 1.4976                 1.6860
 Frc consts  --      1.9494                 1.5053                 1.9269
 IR Inten    --      6.5782                 0.8385                 6.1141

                     22                     23                     24
                      A                      A                      A
 Frequencies --   1462.1516              1545.5568              1632.5345
 Red. masses --      1.1736                 4.8465                 5.1335
 Frc consts  --      1.4783                 6.8210                 8.0609
 IR Inten    --     20.9473                12.3083                 0.6927

                     25                     26                     27
                      A                      A                      A
 Frequencies --   2322.4633              3057.3584              3091.0394
 Red. masses --     12.6516                 1.0573                 1.1001
 Frc consts  --     40.2064                 5.8229                 6.1928
 IR Inten    --     33.9648                 0.0994                 1.0760

                     28                     29                     30
                      A                      A                      A
 Frequencies --   3240.0646              3253.4492              3268.2891
 Red. masses --      1.0876                 1.0945                 1.1049
 Frc consts  --      6.7268                 6.8261                 6.9536
 IR Inten    --      2.7979                 4.1779                 4.1229

 - Thermochemistry -
 -------------------
 Temperature   298.150 Kelvin.  Pressure   1.00000 Atm.
 Atom     1 has atomic number  6 and mass  12.00000

 Molecular mass:    91.04220 amu.
 Principal axes and moments of inertia in atomic units:
                           1         2         3
     Eigenvalues --   217.18013 953.320491159.11059
           X            1.00000   0.00270   0.00000
           Y           -0.00270   1.00000  -0.00000
           Z           -0.00000   0.00000   1.00000
 This molecule is an asymmetric top.
 Rotational symmetry number  1.
 Rotational temperatures (Kelvin)      0.39881     0.09085     0.07472
 Rotational constants (GHZ):           8.30988     1.89311     1.55701
 Zero-point vibrational energy     243272.4 (Joules/Mol)
                                   58.14349 (Kcal/Mol)
 Warning -- explicit consideration of   6 degrees of freedom as
           vibrations may cause significant error
 Vibrational temperatures:    239.96   272.16   507.33   756.61   784.91
          (Kelvin)            873.27   894.41  1032.25  1216.35  1297.61
                             1334.74  1349.55  1375.22  1418.17  1460.01
                             1657.67  1701.47  1720.51  1833.53  1879.29
                             2003.87  2103.71  2223.71  2348.85  3341.51
                             4398.86  4447.32  4661.73  4680.99  4702.34

 Zero-point correction=                           0.092658 (Hartree/Particle)
 Thermal correction to Energy=                    0.098281
 Thermal correction to Enthalpy=                  0.099226
 Thermal correction to Gibbs Free Energy=         0.063276
 Sum of electronic and zero-point Energies=           -284.683784
 Sum of electronic and thermal Energies=              -284.678160
 Sum of electronic and thermal Enthalpies=            -284.677216
 Sum of electronic and thermal Free Energies=         -284.713166

                     E (Thermal)             CV                S
                      KCal/Mol        Cal/Mol-Kelvin    Cal/Mol-Kelvin
 Total                   61.673             20.861             75.662
 Electronic               0.000              0.000              0.000
 Translational            0.889              2.981             39.438
 Rotational               0.889              2.981             26.976
 Vibrational             59.895             14.899              9.249
 Vibration     1          0.624              1.883              2.471
 Vibration     2          0.633              1.855              2.236
 Vibration     3          0.729              1.570              1.155
 Vibration     4          0.881              1.193              0.596
 Vibration     5          0.901              1.149              0.553
 Vibration     6          0.966              1.017              0.438

 Optimization completed.
    -- Stationary point found.
 Normal termination of Gaussian 16 at Fri Dec 22 00:18:42 2023.
