 Gaussian 16, Revision C.01,
 Gaussian 16:  ES64L-G16RevC.01  3-Jul-2019

 ---------------------------------------
 #p hf/sto-3g geom=connectivity Opt Freq
 ---------------------------------------

 --------------------------------------------------------------------
 Ground state optimization and frequency calculation for formaldehyde
 --------------------------------------------------------------------
 Symbolic Z-matrix:
 Charge =  0 Multiplicity = 1

 SCF Done:  E(RHF) =  -112.349068079     A.U. after    9 cycles
 SCF Done:  E(RHF) =  -112.354169635     A.U. after    9 cycles
 SCF Done:  E(RHF) =  -112.354340256     A.U. after    8 cycles
 SCF Done:  E(RHF) =  -112.354346976     A.U. after    8 cycles
 Optimization completed.
    -- Stationary point found.
 Normal termination of Gaussian 16 at Thu Feb 22 16:06:03 2024.

 ---------------------------------------------------------------
 #P Geom=AllCheck Guess=TCheck SCRF=Check GenChk RHF/STO-3G Freq
 ---------------------------------------------------------------

 Structure from the checkpoint file:  "STO-3G_job1.chk"
 --------------------------------------------------------------------
 Ground state optimization and frequency calculation for formaldehyde
 --------------------------------------------------------------------
 Charge =  0 Multiplicity = 1

                         Standard orientation:
 ---------------------------------------------------------------------
 Center     Atomic      Atomic             Coordinates (Angstroms)
 Number     Number       Type             X           Y           Z
 ---------------------------------------------------------------------
      1          6           0       -0.000000    0.000000   -0.533822
      2          1           0       -0.000000   -0.926149   -1.129445
      3          1           0        0.000000    0.926149   -1.129445
      4          8           0        0.000000   -0.000000    0.682727
 ---------------------------------------------------------------------

 SCF Done:  E(RHF) =  -112.354346976     A.U. after    1 cycles

 The electronic state is 1-A1.
 Alpha  occ. eigenvalues --  -20.31277 -11.12510  -1.33757  -0.80784  -0.63301
 Alpha  occ. eigenvalues --   -0.54562  -0.44330  -0.35440
 Alpha virt. eigenvalues --    0.28203   0.62894   0.73458   0.91320

 Mulliken charges:
               1
     1  C    0.074971
     2  H    0.056496
     3  H    0.056496
     4  O   -0.187963
 Sum of Mulliken charges =   0.00000

 Dipole moment (field-independent basis, Debye):
    X=              0.0000    Y=             -0.0000    Z=             -1.5366  Tot=              1.5366
 Quadrupole moment (field-independent basis, Debye-Ang):
   XX=            -10.4250   YY=            -10.5468   ZZ=            -11.3099
   XY=              0.0000   XZ=             -0.0000   YZ=              0.0000

  Exact polarizability:       2.479       0.000       5.897      -0.000       0.000      10.666
 Approx polarizability:       1.781       0.000       4.703      -0.000       0.000      12.929

                      1                      2                      3
                     B1                     B2                     A1
 Frequencies --   1278.2355              1397.1513              1767.4620
 Red. masses --      1.3685                 1.3449                 1.1625
 Frc consts  --      1.3174                 1.5468                 2.1396
 IR Inten    --      6.1482                29.5891                 4.1495
 Raman Activ --      0.0074                 3.0391                16.3794

                      4                      5                      6
                     A1                     A1                     B2
 Frequencies --   2100.7333              3500.8640              3647.7267
 Red. masses --      5.0696                 1.0643                 1.1152
 Frc consts  --     13.1815                 7.6856                 8.7427
 IR Inten    --      8.4736                 1.8230                19.8911
 Raman Activ --      6.7147                38.6315                24.5171

 - Thermochemistry -
 -------------------
 Temperature   298.150 Kelvin.  Pressure   1.00000 Atm.
 Atom     1 has atomic number  6 and mass  12.00000

 Molecular mass:    30.01056 amu.
 Principal axes and moments of inertia in atomic units:
                           1         2         3
     Eigenvalues --     6.17412  47.42190  53.59601
           X           -0.00000   0.00000   1.00000
           Y            0.00000   1.00000  -0.00000
           Z            1.00000  -0.00000   0.00000
 This molecule is an asymmetric top.
 Rotational symmetry number  2.
 Rotational temperatures (Kelvin)     14.02855     1.82645     1.61605
 Rotational constants (GHZ):         292.30761    38.05713    33.67305
 Zero-point vibrational energy      81897.4 (Joules/Mol)
                                   19.57394 (Kcal/Mol)
 Vibrational temperatures:   1839.10  2010.19  2542.98  3022.49  5036.96
          (Kelvin)           5248.27

 Zero-point correction=                           0.031193 (Hartree/Particle)
 Thermal correction to Energy=                    0.034047
 Thermal correction to Enthalpy=                  0.034992
 Thermal correction to Gibbs Free Energy=         0.010186
 Sum of electronic and zero-point Energies=           -112.323154
 Sum of electronic and thermal Energies=              -112.320300
 Sum of electronic and thermal Enthalpies=            -112.319355
 Sum of electronic and thermal Free Energies=         -112.344161

                     E (Thermal)             CV                S
                      KCal/Mol        Cal/Mol-Kelvin    Cal/Mol-Kelvin
 Total                   21.365              6.264             52.208
 Electronic               0.000              0.000              0.000
 Translational            0.889              2.981             36.130
 Rotational               0.889              2.981             16.025
 Vibrational             19.588              0.303              0.053

 Optimization completed.
    -- Stationary point found.
 Normal termination of Gaussian 16 at Thu Feb 22 16:07:00 2024.
