 Gaussian 16, Revision C.01,

 -----------------------------------------------------------
 #p CIS(Root=1)/STO-3G geom=connectivity Density=Current Opt
 -----------------------------------------------------------

 Manually displaced excited state geometry re-optimized in search of a
 minimal energy structure.
 ----------------------------------------------------------------------
 Symbolic Z-matrix:
 Charge =  0 Multiplicity = 1

 SCF Done:  E(RHF) =  -112.306800669     A.U. after   11 cycles
 SCF Done:  E(RHF) =  -112.312937159     A.U. after   10 cycles
 SCF Done:  E(RHF) =  -112.321609252     A.U. after   10 cycles
 SCF Done:  E(RHF) =  -112.326119357     A.U. after   10 cycles
 SCF Done:  E(RHF) =  -112.327018506     A.U. after   10 cycles
 Optimization completed.
    -- Stationary point found.
 Normal termination of Gaussian 16 at Fri Feb 23 11:03:21 2024.
 Gaussian 16:  ES64L-G16RevC.01  3-Jul-2019

 -----------------------------------------------------
 #p CIS(Root=1)/STO-3G geom=check Density=Current Freq
 -----------------------------------------------------

 ---------------------------------------------------------------------
 Frequency calculation for re-optimized first excited state structure.
 ---------------------------------------------------------------------
 Structure from the checkpoint file:  "manual_displacement_freq.chk"
 Charge =  0 Multiplicity = 1

                         Standard orientation:
 ---------------------------------------------------------------------
 Center     Atomic      Atomic             Coordinates (Angstroms)
 Number     Number       Type             X           Y           Z
 ---------------------------------------------------------------------
      1          6           0        0.035219    0.594073    0.000000
      2          1           0       -0.246535    1.077311    0.928948
      3          1           0       -0.246535    1.077311   -0.928948
      4          8           0        0.035219   -0.714883    0.000000
 ---------------------------------------------------------------------

 SCF Done:  E(RHF) =  -112.327018506     A.U. after   11 cycles

 Excitation energies and oscillator strengths:

 Excited State   1:      Singlet-A"     3.0494 eV  406.59 nm  f=0.0004  <S**2>=0.000
       5 ->  9         0.12562
       8 ->  9         0.69410
 This state for optimization and/or second-order correction.
 Total Energy, E(CIS/TDA) =  -112.214955114
 Copying the excited state density for this state as the 1-particle RhoCI density.

 Excited State   2:      Singlet-A'     7.4433 eV  166.57 nm  f=0.0098  <S**2>=0.000
       6 ->  9         0.67687
       7 ->  9        -0.18080

 Excited State   3:      Singlet-A'    10.2313 eV  121.18 nm  f=0.2987  <S**2>=0.000
       6 ->  9         0.18659
       6 -> 12        -0.23740
       7 ->  9         0.62546

 The electronic state is 1-A'.
 Alpha  occ. eigenvalues --  -20.29963 -11.10180  -1.28202  -0.81438  -0.61830
 Alpha  occ. eigenvalues --   -0.51742  -0.39421  -0.36127
 Alpha virt. eigenvalues --    0.23562   0.65791   0.75021   0.77685

 Mulliken charges:
               1
     1  C   -0.137816
     2  H    0.074210
     3  H    0.074210
     4  O   -0.010605
 Sum of Mulliken charges =  -0.00000

 Dipole moment (field-independent basis, Debye):
    X=             -0.5763    Y=              0.3197    Z=             -0.0000  Tot=              0.6590
 Quadrupole moment (field-independent basis, Debye-Ang):
   XX=            -11.3354   YY=            -11.2620   ZZ=             -9.6152
   XY=             -0.5036   XZ=              0.0000   YZ=             -0.0000

  Exact polarizability:       2.299      -0.403      11.120       0.000      -0.000       6.402
 Approx polarizability:       2.345       0.436      15.160       0.000      -0.000       4.644

                      1                      2                      3
                     A'                     A"                     A'
 Frequencies --    608.5186              1108.1737              1569.0055
 Red. masses --      1.3167                 1.2618                 1.2572
 Frc consts  --      0.2873                 0.9130                 1.8235
 IR Inten    --     83.6999                11.2997                 4.6303

                      4                      5                      6
                     A'                     A'                     A"
 Frequencies --   1775.6521              3583.2348              3743.1660
 Red. masses --      3.9844                 1.0531                 1.1143
 Frc consts  --      7.4016                 7.9666                 9.1988
 IR Inten    --     25.9012                33.8190                 2.8222

 - Thermochemistry -
 -------------------
 Temperature   298.150 Kelvin.  Pressure   1.00000 Atm.
 Atom     1 has atomic number  6 and mass  12.00000

 Molecular mass:    30.01056 amu.
 Principal axes and moments of inertia in atomic units:
                           1         2         3
     Eigenvalues --     6.63960  52.65984  58.44321
           X           -0.04501   0.00000   0.99899
           Y            0.99899   0.00000   0.04501
           Z           -0.00000   1.00000  -0.00000
 This molecule is an asymmetric top.
 Rotational symmetry number  1.
 Rotational temperatures (Kelvin)     13.04506     1.64478     1.48202
 Rotational constants (GHZ):         271.81491    34.27168    30.88025
 Zero-point vibrational energy      74095.2 (Joules/Mol)
                                   17.70918 (Kcal/Mol)
 Warning -- explicit consideration of   1 degrees of freedom as
           vibrations may cause significant error
 Vibrational temperatures:    875.52  1594.41  2257.45  2554.77  5155.48
          (Kelvin)           5385.58

 Zero-point correction=                           0.028221 (Hartree/Particle)
 Thermal correction to Energy=                    0.031239
 Thermal correction to Enthalpy=                  0.032183
 Thermal correction to Gibbs Free Energy=         0.006382
 Sum of electronic and zero-point Energies=           -112.186734
 Sum of electronic and thermal Energies=              -112.183716
 Sum of electronic and thermal Enthalpies=            -112.182772
 Sum of electronic and thermal Free Energies=         -112.208573

                     E (Thermal)             CV                S
                      KCal/Mol        Cal/Mol-Kelvin    Cal/Mol-Kelvin
 Total                   19.603              7.335             54.303
 Electronic               0.000              0.000              0.000
 Translational            0.889              2.981             36.130
 Rotational               0.889              2.981             17.664
 Vibrational             17.825              1.373              0.508
 Vibration     1          0.967              1.014              0.435

 Optimization completed.
    -- Stationary point found.
 Normal termination of Gaussian 16 at Fri Feb 23 11:03:25 2024.
