 Gaussian 16, Revision C.01,

 --------------------------------------------
 #p CAM-B3LYP/TZVP geom=connectivity Opt Freq
 --------------------------------------------

 --------------------------------------------------------------------
 Ground state optimization and frequency calculation for formaldehyde
 --------------------------------------------------------------------
 Symbolic Z-matrix:
 Charge =  0 Multiplicity = 1

 SCF Done:  E(RCAM-B3LYP) =  -114.492229738     A.U. after   12 cycles
 SCF Done:  E(RCAM-B3LYP) =  -114.498150903     A.U. after   11 cycles
 SCF Done:  E(RCAM-B3LYP) =  -114.498520164     A.U. after   10 cycles
 SCF Done:  E(RCAM-B3LYP) =  -114.498536673     A.U. after    8 cycles
 Optimization completed.
    -- Stationary point found.
 Normal termination of Gaussian 16 at Fri Mar 22 16:00:42 2024.

 --------------------------------------------------------------------
 #P Geom=AllCheck Guess=TCheck SCRF=Check GenChk RCAM-B3LYP/TZVP Freq
 --------------------------------------------------------------------

 Structure from the checkpoint file:  "CAM-B3LYP_job1.chk"
 --------------------------------------------------------------------
 Ground state optimization and frequency calculation for formaldehyde
 --------------------------------------------------------------------
 Charge =  0 Multiplicity = 1

 SCF Done:  E(RCAM-B3LYP) =  -114.498536673     A.U. after    1 cycles
 Optimization completed.
 Normal termination of Gaussian 16 at Fri Mar 22 16:00:47 2024.

 -------------------------------------------------------------------
 #p CAM-B3LYP/TZVP TD=(nstates=2, Root=1) geom=check Density=Current
 -------------------------------------------------------------------

 TD/CAM-B3LYP for formaldehyde, calculating the first two excited state
 s and looking at the first one.
 ----------------------------------------------------------------------
 Structure from the checkpoint file:  "CAM-B3LYP_job2.chk"
 Charge =  0 Multiplicity = 1

 SCF Done:  E(RCAM-B3LYP) =  -114.498536673     A.U. after   12 cycles
 Total Energy, E(TD-HF/TD-DFT) =  -114.351646612

 1\1\GINC-CX3-5-9\SP\RCAM-B3LYP TD-FC\TZVP\C1H2O1\RK820\22-Mar-2024\0\\
 #p CAM-B3LYP/TZVP TD=(nstates=2, Root=1) geom=check Density=Current\\T
 D/CAM-B3LYP for formaldehyde, calculating the first two excited states
  and looking at the first one.\\0,1\C,0,-0.5023863901,-0.3697623644,0.
 \H,0,0.0186591517,-1.3444073923,0.\H,0,-1.6069633122,-0.4062481164,0.\
 O,0,0.0957883026,0.6667420361,0.\\Version=ES64L-G16RevC.01\State=1-A1\
 HF=-114.4985367\RMSD=4.640e-09\Dipole=-0.320632,-0.5555843,0.\Quadrupo
 le=1.0308409,0.3546761,-1.385517,-0.5850841,0.,0.\PG=C02V [C2(C1O1),SG

 Normal termination of Gaussian 16 at Fri Mar 22 16:00:50 2024.

 ----------------------------------------------------------------------
 #p CAM-B3LYP/TZVP TD=(nstates=2, Root=1) geom=connectivity Density=Cur
 rent Opt Freq=savenormalmodes
 ----------------------------------------------------------------------

 TD/CAM-B3LYP for formaldehyde, optimizing its first excited state geom
 etry.
 ----------------------------------------------------------------------
 Symbolic Z-matrix:
 Charge =  0 Multiplicity = 1

 SCF Done:  E(RCAM-B3LYP) =  -114.455978545     A.U. after   12 cycles
 Total Energy, E(TD-HF/TD-DFT) =  -114.355571851
 SCF Done:  E(RCAM-B3LYP) =  -114.467314498     A.U. after   12 cycles
 Total Energy, E(TD-HF/TD-DFT) =  -114.360544412
 SCF Done:  E(RCAM-B3LYP) =  -114.472759231     A.U. after   11 cycles
 Total Energy, E(TD-HF/TD-DFT) =  -114.361074068
 SCF Done:  E(RCAM-B3LYP) =  -114.478153103     A.U. after   11 cycles
 Total Energy, E(TD-HF/TD-DFT) =  -114.361387554
 SCF Done:  E(RCAM-B3LYP) =  -114.479163727     A.U. after    9 cycles
 Total Energy, E(TD-HF/TD-DFT) =  -114.361410933
 Optimization completed.
    -- Stationary point found.
 Normal termination of Gaussian 16 at Fri Mar 22 16:01:02 2024.

 ----------------------------------------------------------------------
 #P Geom=AllCheck Guess=TCheck SCRF=Check GenChk RCAM-B3LYP TD(FC,Read)
 /TZVP Freq
 ----------------------------------------------------------------------

 ----------------------------------------------------------------------
 TD/CAM-B3LYP for formaldehyde, optimizing its first excited state geom
 etry.
 ----------------------------------------------------------------------
 Charge =  0 Multiplicity = 1

                         Standard orientation:
 ---------------------------------------------------------------------
 Center     Atomic      Atomic             Coordinates (Angstroms)
 Number     Number       Type             X           Y           Z
 ---------------------------------------------------------------------
      1          6           0        0.032007    0.578851   -0.000000
      2          1           0       -0.224047    1.081902    0.936767
      3          1           0       -0.224047    1.081902   -0.936767
      4          8           0        0.032007   -0.704614    0.000000
 ---------------------------------------------------------------------

 SCF Done:  E(RCAM-B3LYP) =  -114.479163727     A.U. after    1 cycles

 Excitation energies and oscillator strengths:

 Excited State   1:      Singlet-A"     3.2042 eV  386.94 nm  f=0.0006  <S**2>=0.000
       8 ->  9         0.70492
 This state for optimization and/or second-order correction.
 Total Energy, E(TD-HF/TD-DFT) =  -114.361410937
 Copying the excited state density for this state as the 1-particle RhoCI density.

 Excited State   2:      Singlet-A'     7.7737 eV  159.49 nm  f=0.0177  <S**2>=0.000
       6 ->  9         0.61448
       7 ->  9        -0.34071

 The electronic state is 1-A'.
 Alpha  occ. eigenvalues --  -19.22612 -10.35857  -1.11241  -0.72848  -0.57155
 Alpha  occ. eigenvalues --   -0.51564  -0.45150  -0.34562
 Alpha virt. eigenvalues --   -0.03350   0.09550   0.14588   0.14806   0.24539
 Alpha virt. eigenvalues --    0.25016   0.29129   0.45031   0.48038   0.49468
 Alpha virt. eigenvalues --    0.51976   0.55938   0.61583   0.77599   1.24121

 Mulliken charges:
               1
     1  C   -0.195664
     2  H    0.160537
     3  H    0.160537
     4  O   -0.125410
 Sum of Mulliken charges =   0.00000

 Dipole moment (field-independent basis, Debye):
    X=             -0.6310    Y=              1.6017    Z=              0.0000  Tot=              1.7215
 Quadrupole moment (field-independent basis, Debye-Ang):
   XX=            -13.7118   YY=            -12.3482   ZZ=            -10.3380
   XY=             -0.6985   XZ=             -0.0000   YZ=              0.0000

  Exact polarizability:      12.801      -0.468      20.359      -0.000       0.000      13.865
 Approx polarizability:      10.888       0.078      28.400      -0.000       0.000      13.916

                           ! Non-Optimized Parameters !
 Normal termination of Gaussian 16 at Fri Mar 22 16:01:07 2024.

 ------------------------------------
 absorption spectra for formaldehyde.
 ------------------------------------
 Structure from the checkpoint file:  "CAM-B3LYP_job1.chk"
 Charge =  0 Multiplicity = 1

 Normal termination of Gaussian 16 at Fri Mar 22 16:01:15 2024.
 Gaussian 16:  ES64L-G16RevC.01  3-Jul-2019

                      1                      2                      3
                      A                      A                      A
 Frequencies --   1223.2557              1285.4221              1552.7372
 Red. masses --      1.3675                 1.3445                 1.1026
 Frc consts  --      1.2056                 1.3088                 1.5662
 IR Inten    --      3.1335                11.2022                10.2125

                      4                      5                      6
                      A                      A                      A
 Frequencies --   1855.2821              2924.3076              2989.6339
 Red. masses --      7.5504                 1.0443                 1.1205
 Frc consts  --     15.3124                 5.2614                 5.9008
 IR Inten    --    117.7152                56.8630               120.7078

 - Thermochemistry -
 -------------------
 Temperature   298.150 Kelvin.  Pressure   1.00000 Atm.
 Atom     1 has atomic number  6 and mass  12.00000

 Molecular mass:    30.01056 amu.
 Principal axes and moments of inertia in atomic units:
                           1         2         3
     Eigenvalues --     6.33928  45.85156  52.19084
           X            0.49984   0.86612  -0.00000
           Y            0.86612  -0.49984   0.00000
           Z           -0.00000   0.00000   1.00000
 This molecule is an asymmetric top.
 Rotational symmetry number  2.
 Rotational temperatures (Kelvin)     13.66306     1.88901     1.65956
 Rotational constants (GHZ):         284.69192    39.36052    34.57965
 Zero-point vibrational energy      70762.9 (Joules/Mol)
                                   16.91275 (Kcal/Mol)
 Vibrational temperatures:   1759.99  1849.44  2234.04  2669.34  4207.43
          (Kelvin)           4301.42

 Zero-point correction=                           0.026952 (Hartree/Particle)
 Thermal correction to Energy=                    0.029817
 Thermal correction to Enthalpy=                  0.030761
 Thermal correction to Gibbs Free Energy=         0.005959
 Sum of electronic and zero-point Energies=           -114.471584
 Sum of electronic and thermal Energies=              -114.468720
 Sum of electronic and thermal Enthalpies=            -114.467776
 Sum of electronic and thermal Free Energies=         -114.492577

                     E (Thermal)             CV                S
                      KCal/Mol        Cal/Mol-Kelvin    Cal/Mol-Kelvin
 Total                   18.710              6.390             52.200
 Electronic               0.000              0.000              0.000
 Translational            0.889              2.981             36.130
 Rotational               0.889              2.981             15.991
 Vibrational             16.933              0.429              0.079

 Normal termination of Gaussian 16 at Fri Mar 22 16:01:23 2024.
