 Gaussian 16, Revision C.01,

 ----------------------------------------
 #p /CAM-B3LYP geom=connectivity Opt Freq
 ----------------------------------------

 --------------------------------------------------------------------
 Ground state optimization and frequency calculation for formaldehyde
 --------------------------------------------------------------------
 Symbolic Z-matrix:
 Charge =  0 Multiplicity = 1

 SCF Done:  E(RCAM-B3LYP) =  -112.893943069     A.U. after   10 cycles
 SCF Done:  E(RCAM-B3LYP) =  -112.898539586     A.U. after   10 cycles
 SCF Done:  E(RCAM-B3LYP) =  -112.898689957     A.U. after    8 cycles
 SCF Done:  E(RCAM-B3LYP) =  -112.898691172     A.U. after    7 cycles
 Optimization completed.
    -- Stationary point found.
 Normal termination of Gaussian 16 at Fri Feb 23 12:42:49 2024.

 ----------------------------------------------------------------------
 #P Geom=AllCheck Guess=TCheck SCRF=Check GenChk RCAM-B3LYP/STO-3G Freq
 ----------------------------------------------------------------------

 Structure from the checkpoint file:  "CAM-B3LYP_job1.chk"
 --------------------------------------------------------------------
 Ground state optimization and frequency calculation for formaldehyde
 --------------------------------------------------------------------
 Charge =  0 Multiplicity = 1

 SCF Done:  E(RCAM-B3LYP) =  -112.898691172     A.U. after    1 cycles
 Optimization completed.
 Normal termination of Gaussian 16 at Fri Feb 23 12:42:54 2024.

 -----------------------------------------------------------------
 #p TD/CAM-B3LYP TD=(nstates=2, Root=1) geom=check Density=Current
 -----------------------------------------------------------------

 TD/CAM-B3LYP for formaldehyde, calculating the first two excited state
 s and looking at the first one.
 ----------------------------------------------------------------------
 Structure from the checkpoint file:  "CAM-B3LYP_job2.chk"
 Charge =  0 Multiplicity = 1

 SCF Done:  E(RCAM-B3LYP) =  -112.898691172     A.U. after   10 cycles
 Normal termination of Gaussian 16 at Fri Feb 23 12:42:57 2024.

 ------------------------------------------------------
 #p TD(Root=1)/CAM-B3LYP geom=check Density=Current Opt
 ------------------------------------------------------

 TD/CAM-B3LYP for formaldehyde, optimizing its first excited state geom
 etry.
 ----------------------------------------------------------------------
 Structure from the checkpoint file:  "CAM-B3LYP_job3.chk"
 Charge =  0 Multiplicity = 1

 SCF Done:  E(RCAM-B3LYP) =  -112.898691172     A.U. after   10 cycles
 Total Energy, E(TD-HF/TD-DFT) =  -112.763096545
 SCF Done:  E(RCAM-B3LYP) =  -112.885689485     A.U. after   11 cycles
 Total Energy, E(TD-HF/TD-DFT) =  -112.779787704
 SCF Done:  E(RCAM-B3LYP) =  -112.880714399     A.U. after   10 cycles
 Total Energy, E(TD-HF/TD-DFT) =  -112.780747417
 SCF Done:  E(RCAM-B3LYP) =  -112.880465721     A.U. after    8 cycles
 Total Energy, E(TD-HF/TD-DFT) =  -112.780777645
 SCF Done:  E(RCAM-B3LYP) =  -112.880558267     A.U. after    7 cycles
 Total Energy, E(TD-HF/TD-DFT) =  -112.780779852
    -- Stationary point found.
 Normal termination of Gaussian 16 at Fri Feb 23 12:43:04 2024.
 Gaussian 16:  ES64L-G16RevC.01  3-Jul-2019

 -------------------------------------------------------
 #p TD(Root=1)/CAM-B3LYP geom=check Density=Current Freq
 -------------------------------------------------------

 TD/CAM-B3LYP for formaldehyde, performing a frequency calculation on t
 he first excited state.
 ----------------------------------------------------------------------
 Structure from the checkpoint file:  "CAM-B3LYP_job4.chk"
 Charge =  0 Multiplicity = 1

                         Standard orientation:
 ---------------------------------------------------------------------
 Center     Atomic      Atomic             Coordinates (Angstroms)
 Number     Number       Type             X           Y           Z
 ---------------------------------------------------------------------
      1          6           0       -0.000000   -0.000000   -0.613380
      2          1           0       -0.000000   -0.957202   -1.141728
      3          1           0        0.000000    0.957202   -1.141728
      4          8           0        0.000000    0.000000    0.745467
 ---------------------------------------------------------------------

 SCF Done:  E(RCAM-B3LYP) =  -112.880558267     A.U. after   10 cycles

 Excitation energies and oscillator strengths:

 Excited State   1:      Singlet-A2     2.7151 eV  456.65 nm  f=0.0000  <S**2>=0.000
       8 ->  9         0.70987
 This state for optimization and/or second-order correction.
 Total Energy, E(TD-HF/TD-DFT) =  -112.780779849
 Copying the excited state density for this state as the 1-particle RhoCI density.

 Excited State   2:      Singlet-B1     7.7374 eV  160.24 nm  f=0.0065  <S**2>=0.000
       6 ->  9         0.70645

 Excited State   3:      Singlet-A2    10.9726 eV  112.99 nm  f=0.0000  <S**2>=0.000
       5 ->  9         0.70647

 The electronic state is 1-A1.
 Alpha  occ. eigenvalues --  -18.96549 -10.12996  -1.00356  -0.66474  -0.50023
 Alpha  occ. eigenvalues --   -0.38853  -0.32165  -0.21661
 Alpha virt. eigenvalues --    0.09982   0.43565   0.51431   0.56537

 Mulliken charges:
               1
     1  C   -0.146390
     2  H    0.093799
     3  H    0.093799
     4  O   -0.041209
 Sum of Mulliken charges =   0.00000

 Dipole moment (field-independent basis, Debye):
    X=              0.0000    Y=             -0.0000    Z=             -0.7645  Tot=              0.7645
 Quadrupole moment (field-independent basis, Debye-Ang):
   XX=            -11.4000   YY=             -9.3353   ZZ=            -10.8164
   XY=             -0.0000   XZ=             -0.0000   YZ=              0.0000

  Exact polarizability:       2.088       0.000       6.670       0.000      -0.000      10.748
 Approx polarizability:       2.725       0.000       6.471      -0.000       0.000      24.287

 ******    1 imaginary frequencies (negative Signs) ******

                      1                      2                      3
                     B1                     B2                     A1
 Frequencies --   -478.9689               963.8541              1378.3859
 Red. masses --      1.3162                 1.2797                 1.6920
 Frc consts  --      0.1779                 0.7005                 1.8941
 IR Inten    --     91.7740                 4.7361                 1.5946

                      4                      5                      6
                     A1                     A1                     B2
 Frequencies --   1564.0068              3395.0710              3566.2301
 Red. masses --      2.2103                 1.0487                 1.1202
 Frc consts  --      3.1855                 7.1216                 8.3942
 IR Inten    --      9.1781                26.1790                 6.3343

 - Thermochemistry -
 -------------------
 Temperature   298.150 Kelvin.  Pressure   1.00000 Atm.
 Atom     1 has atomic number  6 and mass  12.00000

 Molecular mass:    30.01056 amu.
 Principal axes and moments of inertia in atomic units:
                           1         2         3
     Eigenvalues --     6.59507  56.63905  63.23413
           X            0.00000   0.00000   1.00000
           Y            0.00000   1.00000  -0.00000
           Z            1.00000  -0.00000  -0.00000
 This molecule is an asymmetric top.
 Rotational symmetry number  2.
 Rotational temperatures (Kelvin)     13.13312     1.52923     1.36973
 Rotational constants (GHZ):         273.64985    31.86390    28.54062
    1 imaginary frequencies ignored.
 Zero-point vibrational energy      65002.4 (Joules/Mol)
                                   15.53594 (Kcal/Mol)
 Vibrational temperatures:   1386.77  1983.19  2250.26  4884.75  5131.01
          (Kelvin)

 Zero-point correction=                           0.024758 (Hartree/Particle)
 Thermal correction to Energy=                    0.027645
 Thermal correction to Enthalpy=                  0.028589
 Thermal correction to Gibbs Free Energy=         0.003551
 Sum of electronic and zero-point Energies=           -112.756022
 Sum of electronic and thermal Energies=              -112.753135
 Sum of electronic and thermal Enthalpies=            -112.752191
 Sum of electronic and thermal Free Energies=         -112.777229

                     E (Thermal)             CV                S
                      KCal/Mol        Cal/Mol-Kelvin    Cal/Mol-Kelvin
 Total                   17.347              6.554             52.698
 Electronic               0.000              0.000              0.000
 Translational            0.889              2.981             36.130
 Rotational               0.889              2.981             16.431
 Vibrational             15.570              0.592              0.137

 Optimization completed.
    -- Stationary point found.
 Normal termination of Gaussian 16 at Fri Feb 23 12:43:09 2024.
