 Gaussian 16, Revision C.01,

 --------------------------------------------
 #p CAM-B3LYP/TZVP geom=connectivity Opt Freq
 --------------------------------------------

 --------------------------------------------------------------------
 Ground state optimization and frequency calculation for formaldehyde
 --------------------------------------------------------------------
 Symbolic Z-matrix:
 Charge =  0 Multiplicity = 1

 SCF Done:  E(RCAM-B3LYP) =  -114.492229738     A.U. after   12 cycles
 SCF Done:  E(RCAM-B3LYP) =  -114.498150903     A.U. after   11 cycles
 SCF Done:  E(RCAM-B3LYP) =  -114.498520164     A.U. after   10 cycles
 SCF Done:  E(RCAM-B3LYP) =  -114.498536673     A.U. after    8 cycles
 Optimization completed.
    -- Stationary point found.
 Normal termination of Gaussian 16 at Mon Feb 26 13:53:26 2024.

 --------------------------------------------------------------------
 #P Geom=AllCheck Guess=TCheck SCRF=Check GenChk RCAM-B3LYP/TZVP Freq
 --------------------------------------------------------------------

 Structure from the checkpoint file:  "CAM-B3LYP_job1.chk"
 --------------------------------------------------------------------
 Ground state optimization and frequency calculation for formaldehyde
 --------------------------------------------------------------------
 Charge =  0 Multiplicity = 1

 SCF Done:  E(RCAM-B3LYP) =  -114.498536673     A.U. after    1 cycles
 Optimization completed.
 Normal termination of Gaussian 16 at Mon Feb 26 13:53:37 2024.

 -------------------------------------------------------------------
 #p CAM-B3LYP/TZVP TD=(nstates=2, Root=1) geom=check Density=Current
 -------------------------------------------------------------------

 TD/CAM-B3LYP for formaldehyde, calculating the first two excited state
 s and looking at the first one.
 ----------------------------------------------------------------------
 Structure from the checkpoint file:  "CAM-B3LYP_job2.chk"
 Charge =  0 Multiplicity = 1

 SCF Done:  E(RCAM-B3LYP) =  -114.498536673     A.U. after   12 cycles
 Total Energy, E(TD-HF/TD-DFT) =  -114.351646612

 1\1\GINC-CX3-7-2\SP\RCAM-B3LYP TD-FC\TZVP\C1H2O1\RK820\26-Feb-2024\0\\
 #p CAM-B3LYP/TZVP TD=(nstates=2, Root=1) geom=check Density=Current\\T
 D/CAM-B3LYP for formaldehyde, calculating the first two excited states
  and looking at the first one.\\0,1\C,0,-0.5023863901,-0.3697623644,0.
 \H,0,0.0186591517,-1.3444073923,0.\H,0,-1.6069633122,-0.4062481164,0.\
 O,0,0.0957883026,0.6667420361,0.\\Version=ES64L-G16RevC.01\State=1-A1\
 HF=-114.4985367\RMSD=4.640e-09\Dipole=-0.320632,-0.5555843,0.\Quadrupo
 le=1.0308409,0.3546761,-1.385517,-0.5850841,0.,0.\PG=C02V [C2(C1O1),SG

 Normal termination of Gaussian 16 at Mon Feb 26 13:53:48 2024.

 ----------------------------------------------------------------------
 #p CAM-B3LYP/TZVP TD=(nstates=2, Root=1) geom=check Density=Current Op
 t
 ----------------------------------------------------------------------

 TD/CAM-B3LYP for formaldehyde, optimizing its first excited state geom
 etry.
 ----------------------------------------------------------------------
 Structure from the checkpoint file:  "CAM-B3LYP_job3.chk"
 Charge =  0 Multiplicity = 1

 SCF Done:  E(RCAM-B3LYP) =  -114.498536673     A.U. after   12 cycles
 Total Energy, E(TD-HF/TD-DFT) =  -114.351646612
 SCF Done:  E(RCAM-B3LYP) =  -114.493907126     A.U. after   11 cycles
 Total Energy, E(TD-HF/TD-DFT) =  -114.359528342
 SCF Done:  E(RCAM-B3LYP) =  -114.488043780     A.U. after   11 cycles
 Total Energy, E(TD-HF/TD-DFT) =  -114.360853572
 SCF Done:  E(RCAM-B3LYP) =  -114.487609714     A.U. after    9 cycles
 Total Energy, E(TD-HF/TD-DFT) =  -114.360912393
 SCF Done:  E(RCAM-B3LYP) =  -114.487626072     A.U. after    8 cycles
 Total Energy, E(TD-HF/TD-DFT) =  -114.360921161
 SCF Done:  E(RCAM-B3LYP) =  -114.487714421     A.U. after    7 cycles
 Total Energy, E(TD-HF/TD-DFT) =  -114.360921476
    -- Stationary point found.
 Normal termination of Gaussian 16 at Mon Feb 26 13:55:24 2024.
 Gaussian 16:  ES64L-G16RevC.01  3-Jul-2019

 ----------------------------------------------------------------------
 #p CAM-B3LYP/TZVP TD=(nstates=2, Root=1) geom=check Density=Current Fr
 eq
 ----------------------------------------------------------------------

 TD/CAM-B3LYP for formaldehyde, performing a frequency calculation on t
 he first excited state.
 ----------------------------------------------------------------------
 Structure from the checkpoint file:  "CAM-B3LYP_job4.chk"
 Charge =  0 Multiplicity = 1

                         Standard orientation:
 ---------------------------------------------------------------------
 Center     Atomic      Atomic             Coordinates (Angstroms)
 Number     Number       Type             X           Y           Z
 ---------------------------------------------------------------------
      1          6           0        0.000000   -0.000000   -0.577252
      2          1           0        0.000000   -0.952097   -1.105143
      3          1           0        0.000000    0.952097   -1.105143
      4          8           0       -0.000000    0.000000    0.709225
 ---------------------------------------------------------------------

 SCF Done:  E(RCAM-B3LYP) =  -114.487714421     A.U. after   12 cycles

 Excitation energies and oscillator strengths:

 Excited State   1:      Singlet-A2     3.4502 eV  359.35 nm  f=0.0000  <S**2>=0.000
       8 ->  9         0.70544
 This state for optimization and/or second-order correction.
 Total Energy, E(TD-HF/TD-DFT) =  -114.360921478
 Copying the excited state density for this state as the 1-particle RhoCI density.

 Excited State   2:      Singlet-B1     8.1038 eV  153.00 nm  f=0.0008  <S**2>=0.000
       6 ->  9         0.70418

 The electronic state is 1-A1.
 Alpha  occ. eigenvalues --  -19.22370 -10.35934  -1.10895  -0.73029  -0.57676
 Alpha  occ. eigenvalues --   -0.51351  -0.44949  -0.34662
 Alpha virt. eigenvalues --   -0.02403   0.09408   0.14509   0.14711   0.23301
 Alpha virt. eigenvalues --    0.25120   0.31099   0.44566   0.47913   0.50729
 Alpha virt. eigenvalues --    0.51604   0.55770   0.65927   0.77555   1.21168

 Mulliken charges:
               1
     1  C   -0.220068
     2  H    0.169234
     3  H    0.169234
     4  O   -0.118399
 Sum of Mulliken charges =   0.00000

 Dipole moment (field-independent basis, Debye):
    X=              0.0000    Y=              0.0000    Z=             -1.6656  Tot=              1.6656
 Quadrupole moment (field-independent basis, Debye-Ang):
   XX=            -13.9021   YY=            -10.1932   ZZ=            -12.1725
   XY=             -0.0000   XZ=             -0.0000   YZ=             -0.0000

  Exact polarizability:      12.824       0.000      13.037       0.000      -0.000      20.196
 Approx polarizability:      10.035       0.000      13.699      -0.000       0.000      28.684

 ******    1 imaginary frequencies (negative Signs) ******

                      1                      2                      3
                     B1                     B2                     A1
 Frequencies --   -387.2007               892.1950              1317.6003
 Red. masses --      1.3269                 1.3070                 1.1413
 Frc consts  --      0.1172                 0.6130                 1.1674
 IR Inten    --    160.6066                 1.4923                41.8745

                      4                      5                      6
                     A1                     A1                     B2
 Frequencies --   1427.6139              3069.2259              3178.5923
 Red. masses --      6.2885                 1.0397                 1.1148
 Frc consts  --      7.5513                 5.7706                 6.6362
 IR Inten    --      0.2677                23.0578                 7.5975

 - Thermochemistry -
 -------------------
 Temperature   298.150 Kelvin.  Pressure   1.00000 Atm.
 Atom     1 has atomic number  6 and mass  12.00000

 Molecular mass:    30.01056 amu.
 Principal axes and moments of inertia in atomic units:
                           1         2         3
     Eigenvalues --     6.52492  51.23105  57.75597
           X           -0.00000  -0.00000   1.00000
           Y            0.00000   1.00000   0.00000
           Z            1.00000  -0.00000   0.00000
 This molecule is an asymmetric top.
 Rotational symmetry number  2.
 Rotational temperatures (Kelvin)     13.27433     1.69065     1.49965
 Rotational constants (GHZ):         276.59208    35.22749    31.24770
    1 imaginary frequencies ignored.
 Zero-point vibrational energy      59126.8 (Joules/Mol)
                                   14.13164 (Kcal/Mol)
 Vibrational temperatures:   1283.67  1895.73  2054.02  4415.93  4573.29
          (Kelvin)

 Zero-point correction=                           0.022520 (Hartree/Particle)
 Thermal correction to Energy=                    0.025425
 Thermal correction to Enthalpy=                  0.026370
 Thermal correction to Gibbs Free Energy=         0.001403
 Sum of electronic and zero-point Energies=           -114.338401
 Sum of electronic and thermal Energies=              -114.335496
 Sum of electronic and thermal Enthalpies=            -114.334552
 Sum of electronic and thermal Free Energies=         -114.359518

                     E (Thermal)             CV                S
                      KCal/Mol        Cal/Mol-Kelvin    Cal/Mol-Kelvin
 Total                   15.955              6.709             52.546
 Electronic               0.000              0.000              0.000
 Translational            0.889              2.981             36.130
 Rotational               0.889              2.981             16.231
 Vibrational             14.177              0.747              0.185

 Optimization completed.
    -- Stationary point found.
 Normal termination of Gaussian 16 at Mon Feb 26 13:55:45 2024.
