 Gaussian 16, Revision C.01,
 Gaussian 16:  ES64L-G16RevC.01  3-Jul-2019

 ---------------------------------------
 # TD(Root=1) geom=connectivity opt freq
 ---------------------------------------

 Re-optimization and frequency calculation for first excited state comp
 uted by TD/CAM-B3LYP
 ----------------------------------------------------------------------
 Symbolic Z-matrix:
 Charge =  0 Multiplicity = 1

 SCF Done:  E(RHF) =  -112.300745374     A.U. after   11 cycles
 Total Energy, E(TD-HF/TD-DFT) =  -112.209763891
 SCF Done:  E(RHF) =  -112.314744048     A.U. after   10 cycles
 Total Energy, E(TD-HF/TD-DFT) =  -112.217181419
 SCF Done:  E(RHF) =  -112.318521198     A.U. after   10 cycles
 Total Energy, E(TD-HF/TD-DFT) =  -112.218907951
 SCF Done:  E(RHF) =  -112.322798912     A.U. after   10 cycles
 Total Energy, E(TD-HF/TD-DFT) =  -112.219024524
 SCF Done:  E(RHF) =  -112.324522804     A.U. after   10 cycles
 Total Energy, E(TD-HF/TD-DFT) =  -112.219043422
 SCF Done:  E(RHF) =  -112.324642431     A.U. after    9 cycles
 Total Energy, E(TD-HF/TD-DFT) =  -112.219044273
 Optimization completed.
    -- Stationary point found.
 Normal termination of Gaussian 16 at Fri Feb 23 12:58:27 2024.

 ----------------------------------------------------------------------
 #N Geom=AllCheck Guess=TCheck SCRF=Check GenChk RTD(FC,Read)/STO-3G Fr
 eq
 ----------------------------------------------------------------------

 ----------------------------------------------------------------------
 Re-optimization and frequency calculation for first excited state comp
 uted by TD/CAM-B3LYP
 ----------------------------------------------------------------------
 Charge =  0 Multiplicity = 1

                         Standard orientation:
 ---------------------------------------------------------------------
 Center     Atomic      Atomic             Coordinates (Angstroms)
 Number     Number       Type             X           Y           Z
 ---------------------------------------------------------------------
      1          6           0       -0.038362    0.595251   -0.000000
      2          1           0        0.268531    1.073629    0.925350
      3          1           0        0.268531    1.073629   -0.925350
      4          8           0       -0.038362   -0.714845    0.000000
 ---------------------------------------------------------------------

 SCF Done:  E(RHF) =  -112.324642431     A.U. after    1 cycles

 Excitation energies and oscillator strengths:

 Excited State   1:      Singlet-A"     2.8735 eV  431.48 nm  f=0.0003  <S**2>=0.000
       5 ->  9         0.13173
       8 ->  9         0.69751
 This state for optimization and/or second-order correction.
 Total Energy, E(TD-HF/TD-DFT) =  -112.219044273
 Copying the excited state density for this state as the 1-particle RhoCI density.

 Excited State   2:      Singlet-A'     6.9247 eV  179.05 nm  f=0.0100  <S**2>=0.000
       6 ->  9         0.66856
       7 ->  9         0.22794

 Excited State   3:      Singlet-A'     9.2864 eV  133.51 nm  f=0.1955  <S**2>=0.000
       6 ->  9        -0.23340
       6 -> 12        -0.18712
       7 ->  9         0.64273

 The electronic state is 1-A'.
 Alpha  occ. eigenvalues --  -20.30085 -11.10115  -1.28215  -0.81420  -0.61634
 Alpha  occ. eigenvalues --   -0.51766  -0.39392  -0.36140
 Alpha virt. eigenvalues --    0.23251   0.66232   0.74455   0.77481

 Mulliken charges:
               1
     1  C    0.018382
     2  H    0.068399
     3  H    0.068399
     4  O   -0.155181
 Sum of Mulliken charges =  -0.00000

 Dipole moment (field-independent basis, Debye):
    X=              0.3042    Y=              1.4744    Z=             -0.0000  Tot=              1.5054
 Quadrupole moment (field-independent basis, Debye-Ang):
   XX=            -10.3657   YY=            -11.2745   ZZ=            -10.4961
   XY=              0.1681   XZ=             -0.0000   YZ=             -0.0000

  Exact polarizability:       2.370       0.415      11.507      -0.000      -0.000       6.487
 Approx polarizability:       2.437      -0.475      15.253       0.000      -0.000       4.614

                      1                      2                      3
                     A'                     A"                     A'
 Frequencies --    632.9776              1121.0542              1575.0485
 Red. masses --      1.3192                 1.2570                 1.2867
 Frc consts  --      0.3114                 0.9308                 1.8807
 IR Inten    --     86.8444                11.4304                 3.2319

                      4                      5                      6
                     A'                     A'                     A"
 Frequencies --   1759.9668              3563.0071              3719.3131
 Red. masses --      3.7025                 1.0526                 1.1133
 Frc consts  --      6.7570                 7.8733                 9.0739
 IR Inten    --     33.9123                30.7458                 1.0083

 - Thermochemistry -
 -------------------
 Temperature   298.150 Kelvin.  Pressure   1.00000 Atm.
 Atom     1 has atomic number  6 and mass  12.00000

 Molecular mass:    30.01056 amu.
 Principal axes and moments of inertia in atomic units:
                           1         2         3
     Eigenvalues --     6.67203  52.76286  58.41774
           X            0.04892   0.00000   0.99880
           Y            0.99880   0.00000  -0.04892
           Z           -0.00000   1.00000  -0.00000
 This molecule is an asymmetric top.
 Rotational symmetry number  1.
 Rotational temperatures (Kelvin)     12.98164     1.64157     1.48266
 Rotational constants (GHZ):         270.49341    34.20477    30.89372
 Zero-point vibrational energy      73997.2 (Joules/Mol)
                                   17.68576 (Kcal/Mol)
 Vibrational temperatures:    910.71  1612.95  2266.14  2532.20  5126.37
          (Kelvin)           5351.26

 Zero-point correction=                           0.028184 (Hartree/Particle)
 Thermal correction to Energy=                    0.031187
 Thermal correction to Enthalpy=                  0.032132
 Thermal correction to Gibbs Free Energy=         0.006348
 Sum of electronic and zero-point Energies=           -112.190860
 Sum of electronic and thermal Energies=              -112.187857
 Sum of electronic and thermal Enthalpies=            -112.186913
 Sum of electronic and thermal Free Energies=         -112.212697

                     E (Thermal)             CV                S
                      KCal/Mol        Cal/Mol-Kelvin    Cal/Mol-Kelvin
 Total                   19.570              7.274             54.267
 Electronic               0.000              0.000              0.000
 Translational            0.889              2.981             36.130
 Rotational               0.889              2.981             17.671
 Vibrational             17.793              1.312              0.466

 Optimization completed.
    -- Stationary point found.
 Normal termination of Gaussian 16 at Fri Feb 23 12:58:31 2024.
