 Gaussian 16, Revision C.01,
 Gaussian 16:  ES64L-G16RevC.01  3-Jul-2019

 ------------------------------------------------------------------
 # CAM-B3LYP/TZVP TD=(NStates=2, Root=1) geom=connectivity Opt Freq
 ------------------------------------------------------------------

 Manually displaced optimization and frequency calculation of formaldeh
 yde
 ----------------------------------------------------------------------
 Symbolic Z-matrix:
 Charge =  0 Multiplicity = 1

 SCF Done:  E(RCAM-B3LYP) =  -114.455978545     A.U. after   12 cycles
 Total Energy, E(TD-HF/TD-DFT) =  -114.355571851
 SCF Done:  E(RCAM-B3LYP) =  -114.467314498     A.U. after   12 cycles
 Total Energy, E(TD-HF/TD-DFT) =  -114.360544412
 SCF Done:  E(RCAM-B3LYP) =  -114.472759231     A.U. after   11 cycles
 Total Energy, E(TD-HF/TD-DFT) =  -114.361074068
 SCF Done:  E(RCAM-B3LYP) =  -114.478153103     A.U. after   11 cycles
 Total Energy, E(TD-HF/TD-DFT) =  -114.361387554
 SCF Done:  E(RCAM-B3LYP) =  -114.479163727     A.U. after    9 cycles
 Total Energy, E(TD-HF/TD-DFT) =  -114.361410933
 Optimization completed.
    -- Stationary point found.
 Normal termination of Gaussian 16 at Mon Feb 26 14:52:05 2024.

 ----------------------------------------------------------------------
 #N Geom=AllCheck Guess=TCheck SCRF=Check GenChk RCAM-B3LYP TD(FC,Read)
 /TZVP Freq
 ----------------------------------------------------------------------

 ----------------------------------------------------------------------
 Manually displaced optimization and frequency calculation of formaldeh
 yde
 ----------------------------------------------------------------------
 Charge =  0 Multiplicity = 1

                         Standard orientation:
 ---------------------------------------------------------------------
 Center     Atomic      Atomic             Coordinates (Angstroms)
 Number     Number       Type             X           Y           Z
 ---------------------------------------------------------------------
      1          6           0        0.032007    0.578851   -0.000000
      2          1           0       -0.224047    1.081902    0.936767
      3          1           0       -0.224047    1.081902   -0.936767
      4          8           0        0.032007   -0.704614    0.000000
 ---------------------------------------------------------------------

 SCF Done:  E(RCAM-B3LYP) =  -114.479163727     A.U. after    1 cycles

 Excitation energies and oscillator strengths:

 Excited State   1:      Singlet-A"     3.2042 eV  386.94 nm  f=0.0006  <S**2>=0.000
       8 ->  9         0.70492
 This state for optimization and/or second-order correction.
 Total Energy, E(TD-HF/TD-DFT) =  -114.361410937
 Copying the excited state density for this state as the 1-particle RhoCI density.

 Excited State   2:      Singlet-A'     7.7737 eV  159.49 nm  f=0.0177  <S**2>=0.000
       6 ->  9         0.61448
       7 ->  9        -0.34071

 The electronic state is 1-A'.
 Alpha  occ. eigenvalues --  -19.22612 -10.35857  -1.11241  -0.72848  -0.57155
 Alpha  occ. eigenvalues --   -0.51564  -0.45150  -0.34562
 Alpha virt. eigenvalues --   -0.03350   0.09550   0.14588   0.14806   0.24539
 Alpha virt. eigenvalues --    0.25016   0.29129   0.45031   0.48038   0.49468
 Alpha virt. eigenvalues --    0.51976   0.55938   0.61583   0.77599   1.24121

 Mulliken charges:
               1
     1  C    0.072042
     2  H    0.110785
     3  H    0.110785
     4  O   -0.293612
 Sum of Mulliken charges =  -0.00000

 Dipole moment (field-independent basis, Debye):
    X=             -0.2700    Y=              2.7482    Z=             -0.0000  Tot=              2.7614
 Quadrupole moment (field-independent basis, Debye-Ang):
   XX=            -11.8258   YY=            -12.3615   ZZ=            -11.5829
   XY=             -0.1266   XZ=              0.0000   YZ=             -0.0000

  Exact polarizability:      12.801      -0.468      20.359      -0.000       0.000      13.865
 Approx polarizability:      10.888       0.078      28.400      -0.000      -0.000      13.916

                      1                      2                      3
                     A'                     A"                     A'
 Frequencies --    505.2535               900.1189              1313.1547
 Red. masses --      1.3235                 1.2858                 1.0781
 Frc consts  --      0.1991                 0.6138                 1.0953
 IR Inten    --     97.0710                 2.1519                45.8381

                      4                      5                      6
                     A'                     A'                     A"
 Frequencies --   1427.3992              3022.5987              3118.3328
 Red. masses --      9.4284                 1.0408                 1.1099
 Frc consts  --     11.3182                 5.6024                 6.3591
 IR Inten    --      1.2443                16.6834                 3.0854

 - Thermochemistry -
 -------------------
 Temperature   298.150 Kelvin.  Pressure   1.00000 Atm.
 Atom     1 has atomic number  6 and mass  12.00000

 Molecular mass:    30.01056 amu.
 Principal axes and moments of inertia in atomic units:
                           1         2         3
     Eigenvalues --     6.66680  51.03606  57.00225
           X           -0.04227   0.00000   0.99911
           Y            0.99911   0.00000   0.04227
           Z           -0.00000   1.00000  -0.00000
 This molecule is an asymmetric top.
 Rotational symmetry number  1.
 Rotational temperatures (Kelvin)     12.99183     1.69711     1.51948
 Rotational constants (GHZ):         270.70579    35.36208    31.66088
 Zero-point vibrational energy      61529.1 (Joules/Mol)
                                   14.70580 (Kcal/Mol)
 Warning -- explicit consideration of   1 degrees of freedom as
           vibrations may cause significant error
 Vibrational temperatures:    726.95  1295.07  1889.34  2053.71  4348.85
          (Kelvin)           4486.59

 Zero-point correction=                           0.023435 (Hartree/Particle)
 Thermal correction to Energy=                    0.026559
 Thermal correction to Enthalpy=                  0.027503
 Thermal correction to Gibbs Free Energy=         0.001576
 Sum of electronic and zero-point Energies=           -114.337976
 Sum of electronic and thermal Energies=              -114.334852
 Sum of electronic and thermal Enthalpies=            -114.333908
 Sum of electronic and thermal Free Energies=         -114.359835

                     E (Thermal)             CV                S
                      KCal/Mol        Cal/Mol-Kelvin    Cal/Mol-Kelvin
 Total                   16.666              7.938             54.569
 Electronic               0.000              0.000              0.000
 Translational            0.889              2.981             36.130
 Rotational               0.889              2.981             17.612
 Vibrational             14.889              1.977              0.827
 Vibration     1          0.861              1.238              0.645

                           ! Non-Optimized Parameters !
 Normal termination of Gaussian 16 at Mon Feb 26 14:53:25 2024.
