 Gaussian 16, Revision C.01,

 ---------------------------------------------
 #p B3LYP/Def2TZVPP geom=connectivity opt freq
 ---------------------------------------------

 Ground state geometry optimization and frequency calculation of peryle
 ne.
 ----------------------------------------------------------------------
 Symbolic Z-matrix:
 Charge =  0 Multiplicity = 1

 SCF Done:  E(RB3LYP) =  -769.659654989     A.U. after   13 cycles
 SCF Done:  E(RB3LYP) =  -769.676033584     A.U. after   12 cycles
 SCF Done:  E(RB3LYP) =  -769.677298488     A.U. after   10 cycles
 SCF Done:  E(RB3LYP) =  -769.677355880     A.U. after    8 cycles
 SCF Done:  E(RB3LYP) =  -769.677358959     A.U. after    7 cycles
 Optimization completed.
    -- Stationary point found.
 Normal termination of Gaussian 16 at Fri Mar 15 17:31:43 2024.

 ---------------------------------------------------------------------
 #P Geom=AllCheck Guess=TCheck SCRF=Check GenChk RB3LYP/def2TZVPP Freq
 ---------------------------------------------------------------------

 ----------------------------------------------------------------------
 Ground state geometry optimization and frequency calculation of peryle
 ne.
 ----------------------------------------------------------------------
 Charge =  0 Multiplicity = 1

 SCF Done:  E(RB3LYP) =  -769.677358959     A.U. after    1 cycles
 Optimization completed.
 Normal termination of Gaussian 16 at Fri Mar 15 17:59:48 2024.

 ----------------------------------------------------------------------
 #p B3LYP/Def2TZVPP TD=(NStates=2, Root=1) geom=check opt freq=savenorm
 almodes
 ----------------------------------------------------------------------

 One point excitation calculation for the perylene molecule, followed b
 y the excited state geometry optimization.
 ----------------------------------------------------------------------
 Structure from the checkpoint file:  "Perylene1-2.chk"
 Charge =  0 Multiplicity = 1

 SCF Done:  E(RB3LYP) =  -769.677358959     A.U. after   13 cycles
 Total Energy, E(TD-HF/TD-DFT) =  -769.574635789
 SCF Done:  E(RB3LYP) =  -769.673220709     A.U. after   11 cycles
 Total Energy, E(TD-HF/TD-DFT) =  -769.580312916
 SCF Done:  E(RB3LYP) =  -769.671581727     A.U. after   10 cycles
 Total Energy, E(TD-HF/TD-DFT) =  -769.580871628
 SCF Done:  E(RB3LYP) =  -769.671384694     A.U. after    7 cycles
 Total Energy, E(TD-HF/TD-DFT) =  -769.580888248
    -- Stationary point found.
 Normal termination of Gaussian 16 at Fri Mar 15 19:31:07 2024.

 ----------------------------------------------------------------------
 #P Geom=AllCheck Guess=TCheck SCRF=Check GenChk RB3LYP TD(FC,Read)/def
 2TZVPP Freq
 ----------------------------------------------------------------------

 ----------------------------------------------------------------------
 One point excitation calculation for the perylene molecule, followed b
 y the excited state geometry optimization.
 ----------------------------------------------------------------------
 Charge =  0 Multiplicity = 1

 SCF Done:  E(RB3LYP) =  -769.671384694     A.U. after    1 cycles

 Excitation energies and oscillator strengths:

 Excited State   1:      Singlet-A      2.4625 eV  503.48 nm  f=0.3304  <S**2>=0.000
      66 -> 67        -0.70746
      66 <- 67         0.10160
 This state for optimization and/or second-order correction.
 Total Energy, E(TD-HF/TD-DFT) =  -769.580888352
 Copying the excited state density for this state as the 1-particle RhoCI density.

 Excited State   2:      Singlet-A      3.4282 eV  361.66 nm  f=0.0000  <S**2>=0.000
      65 -> 67        -0.28314
      66 -> 68        -0.58937
      66 -> 69        -0.25776

 The electronic state is 1-A.
 Alpha  occ. eigenvalues --  -10.19368 -10.19368 -10.19332 -10.19326 -10.19082
 Alpha  occ. eigenvalues --  -10.19080 -10.18931 -10.18931 -10.18057 -10.18057
 Alpha  occ. eigenvalues --  -10.18056 -10.18053 -10.18003 -10.18003 -10.18003
 Alpha  occ. eigenvalues --  -10.18002 -10.17944 -10.17943 -10.17943 -10.17943
 Alpha  occ. eigenvalues --   -0.90061  -0.87157  -0.84264  -0.81963  -0.81437
 Alpha  occ. eigenvalues --   -0.75858  -0.75592  -0.74955  -0.74470  -0.69300
 Alpha  occ. eigenvalues --   -0.65553  -0.63867  -0.63340  -0.61934  -0.59642
 Alpha  occ. eigenvalues --   -0.55143  -0.54081  -0.53834  -0.51533  -0.49911
 Alpha  occ. eigenvalues --   -0.49000  -0.47970  -0.46717  -0.45925  -0.43840
 Alpha  occ. eigenvalues --   -0.42916  -0.42341  -0.42314  -0.41508  -0.41236
 Alpha  occ. eigenvalues --   -0.39396  -0.38820  -0.38783  -0.38197  -0.36565
 Alpha  occ. eigenvalues --   -0.35820  -0.35735  -0.32935  -0.32758  -0.32546
 Alpha  occ. eigenvalues --   -0.32437  -0.26179  -0.26069  -0.25734  -0.25528
 Alpha  occ. eigenvalues --   -0.18581
 Alpha virt. eigenvalues --   -0.09085  -0.03225  -0.02572  -0.01516  -0.00821
 Alpha virt. eigenvalues --    0.04238   0.05309   0.05508   0.05629   0.06065
 Alpha virt. eigenvalues --    0.06886   0.07132   0.08671   0.09306   0.10179

 Mulliken charges:
               1
     1  C   -0.101598
     2  C   -0.149005
     3  C    0.069970
     4  C   -0.159820
     5  C    0.032958
     6  C   -0.113279
     7  C    0.069964
     8  C    0.070012
     9  C    0.070016
    10  C   -0.159819
    11  C   -0.149008
    12  C   -0.149007
    13  C   -0.101595
    14  C   -0.113284
    15  H    0.118172
    16  H    0.124538
    17  H    0.124539
    18  H    0.118173
    19  C   -0.149000
    20  C   -0.101599
    21  C   -0.113280
    22  C    0.032961
    23  H    0.124538
    24  H    0.118172
    25  C   -0.101595
    26  H    0.124538
    27  C   -0.113284
    28  H    0.118173
    29  H    0.114614
    30  H    0.114614
    31  H    0.114610
    32  H    0.114610
 Sum of Mulliken charges =  -0.00000

 Dipole moment (field-independent basis, Debye):
    X=              0.0000    Y=              0.0000    Z=             -0.0000  Tot=              0.0000
 Quadrupole moment (field-independent basis, Debye-Ang):
   XX=           -101.8284   YY=           -100.0621   ZZ=           -122.9049
   XY=             -0.0000   XZ=              0.0000   YZ=              0.0000

  Exact polarizability:     431.790       0.000     382.297       0.000      -0.000     105.936
 Approx polarizability:     775.682      -0.001     560.138       0.000       0.000     184.332

 Optimization completed.
    -- Stationary point found.
 Normal termination of Gaussian 16 at Fri Mar 15 20:58:45 2024.

 -------------------------------------------------------------------
 #p B3LYP/Def2TZVPP Freq(ReadFC, FC, ReadFCHT) geom=check guess=read
 -------------------------------------------------------------------

 FC analysis for perylene, investigating the S1 PES and simulating the
 absorption spectrum.
 ----------------------------------------------------------------------
 Structure from the checkpoint file:  "Perylene1-1.chk"
 Charge =  0 Multiplicity = 1

 Normal termination of Gaussian 16 at Fri Mar 15 21:01:28 2024.
 Gaussian 16:  ES64L-G16RevC.01  3-Jul-2019

 -------------------------------------------------------------------
 #p B3LYP/Def2TZVPP Freq(ReadFC, FC, ReadFCHT) geom=check guess=read
 -------------------------------------------------------------------

 -----------------------------------------------------------
 FC analysis for perylene, simulating the emission spectrum.
 -----------------------------------------------------------
 Structure from the checkpoint file:  "Perylene1-1.chk"
 Charge =  0 Multiplicity = 1

                         Standard orientation:
 ---------------------------------------------------------------------
 Center     Atomic      Atomic             Coordinates (Angstroms)
 Number     Number       Type             X           Y           Z
 ---------------------------------------------------------------------
      1          6           0       -2.875731   -2.413923    0.000288
      2          6           0       -1.474246   -2.418283    0.000250
      3          6           0       -0.736377   -1.245180    0.000065
      4          6           0       -1.435233    0.000081   -0.000005
      5          6           0       -2.865655   -0.000087   -0.000008
      6          6           0       -3.563370   -1.229133    0.000137
      7          6           0        0.736328   -1.245273   -0.000066
      8          6           0       -0.736434    1.245574   -0.000064
      9          6           0        0.736461    1.245541    0.000065
     10          6           0        1.435254    0.000103    0.000005
     11          6           0        1.474771    2.418426    0.000228
     12          6           0       -1.474750    2.418410   -0.000227
     13          6           0       -2.876328    2.413720   -0.000277
     14          6           0       -3.563669    1.228908   -0.000150
     15          1           0       -4.646062    1.215696   -0.000163
     16          1           0       -3.409767    3.355178   -0.000406
     17          1           0       -3.409138   -3.355392    0.000429
     18          1           0       -4.645772   -1.216250    0.000140
     19          6           0        1.474244   -2.418263   -0.000250
     20          6           0        2.875819   -2.413861   -0.000287
     21          6           0        3.563394   -1.229161   -0.000137
     22          6           0        2.865586   -0.000043    0.000007
     23          1           0        3.409004   -3.355456   -0.000427
     24          1           0        4.645793   -1.216132   -0.000139
     25          6           0        2.876320    2.413744    0.000276
     26          1           0        3.409811    3.355169    0.000404
     27          6           0        3.563629    1.228878    0.000148
     28          1           0        4.646028    1.215609    0.000161
     29          1           0       -0.973309   -3.374559    0.000379
     30          1           0        0.973379   -3.374581   -0.000381
     31          1           0       -0.974217    3.374833   -0.000327
     32          1           0        0.974171    3.374811    0.000330
 ---------------------------------------------------------------------

                      1                      2                      3
                      A                      A                      A
 Frequencies --     22.9728                95.0458               128.3206
 Red. masses --      4.6969                 4.6784                 3.5009
 Frc consts  --      0.0015                 0.0249                 0.0340
 IR Inten    --      0.0000                 0.7594                 0.0000

                      4                      5                      6
                      A                      A                      A
 Frequencies --    177.4335               206.3622               237.8085
 Red. masses --      4.3236                 3.9486                 3.2901
 Frc consts  --      0.0802                 0.0991                 0.1096
 IR Inten    --      6.4443                 0.0000                 0.0000

                      7                      8                      9
                      A                      A                      A
 Frequencies --    254.9297               298.4191               356.6304
 Red. masses --      5.0216                 4.8978                 6.6085
 Frc consts  --      0.1923                 0.2570                 0.4952
 IR Inten    --      0.1661                 0.0000                 0.0000

                     10                     11                     12
                      A                      A                      A
 Frequencies --    365.8843               429.2718               436.5848
 Red. masses --      6.9702                 4.3313                 4.9458
 Frc consts  --      0.5498                 0.4703                 0.5554
 IR Inten    --      0.0000                 0.0000                 0.0000

                     13                     14                     15
                      A                      A                      A
 Frequencies --    465.7010               470.4621               482.7161
 Red. masses --      3.0882                 4.6118                 3.3982
 Frc consts  --      0.3946                 0.6014                 0.4665
 IR Inten    --      0.0000                 3.1876                 0.4558

                     16                     17                     18
                      A                      A                      A
 Frequencies --    539.7755               543.5343               545.8987
 Red. masses --      3.7455                 7.4020                 6.3503
 Frc consts  --      0.6430                 1.2884                 1.1150
 IR Inten    --      0.0000                 0.9354                 0.0000

                     19                     20                     21
                      A                      A                      A
 Frequencies --    556.1795               564.4146               591.5092
 Red. masses --      6.5432                 3.9171                 5.8899
 Frc consts  --      1.1925                 0.7352                 1.2142
 IR Inten    --      0.0000                 9.9495                 3.2358

                     22                     23                     24
                      A                      A                      A
 Frequencies --    638.2125               642.7954               662.8985
 Red. masses --      7.6988                 3.7200                 2.0665
 Frc consts  --      1.8476                 0.9056                 0.5350
 IR Inten    --      0.0000                 0.0000                 0.0000

                     25                     26                     27
                      A                      A                      A
 Frequencies --    670.8848               767.2733               780.4118
 Red. masses --      3.8316                 1.1859                 1.4270
 Frc consts  --      1.0161                 0.4113                 0.5120
 IR Inten    --      0.0000                 0.0003                 0.0000

                     28                     29                     30
                      A                      A                      A
 Frequencies --    783.0788               788.0854               792.9240
 Red. masses --      1.6073                 5.8528                 1.8938
 Frc consts  --      0.5807                 2.1417                 0.7015
 IR Inten    --      0.0000                 2.7266               110.4909

                     31                     32                     33
                      A                      A                      A
 Frequencies --    806.4267               812.2476               830.3421
 Red. masses --      5.2107                 5.4287                 6.7277
 Frc consts  --      1.9965                 2.1102                 2.7329
 IR Inten    --      8.8357                 0.0000                 7.2786

                     34                     35                     36
                      A                      A                      A
 Frequencies --    837.3833               887.3317               892.9135
 Red. masses --      2.7047                 5.7276                 1.5320
 Frc consts  --      1.1174                 2.6570                 0.7197
 IR Inten    --     64.9320                 0.0000                 0.0000

                     37                     38                     39
                      A                      A                      A
 Frequencies --    911.9447               922.1643               930.3992
 Red. masses --      1.3306                 1.6546                 1.4477
 Frc consts  --      0.6520                 0.8290                 0.7384
 IR Inten    --      0.0001                 0.0000                 0.2844

                     40                     41                     42
                      A                      A                      A
 Frequencies --    969.3147               978.8865               984.6425
 Red. masses --      5.7708                 1.3031                 1.3003
 Frc consts  --      3.1946                 0.7357                 0.7428
 IR Inten    --      0.0000                 0.0000                 0.0000

                     43                     44                     45
                      A                      A                      A
 Frequencies --    987.0871               991.6632               995.3593
 Red. masses --      1.3215                 1.3044                 4.3158
 Frc consts  --      0.7586                 0.7557                 2.5193
 IR Inten    --      0.0000                 0.8028                 0.0000

                     46                     47                     48
                      A                      A                      A
 Frequencies --   1068.7036              1076.4464              1113.4852
 Red. masses --      5.6734                 2.8182                 1.7055
 Frc consts  --      3.8178                 1.9240                 1.2459
 IR Inten    --      6.7887                 0.0000                 3.0779

                     49                     50                     51
                      A                      A                      A
 Frequencies --   1127.3686              1153.7957              1169.2963
 Red. masses --      2.1769                 1.5120                 1.3527
 Frc consts  --      1.6301                 1.1860                 1.0897
 IR Inten    --      0.0000                 5.4571                 0.0000

                     52                     53                     54
                      A                      A                      A
 Frequencies --   1175.7377              1214.2091              1216.2463
 Red. masses --      1.4232                 1.4985                 1.2369
 Frc consts  --      1.1591                 1.3016                 1.0780
 IR Inten    --      2.0805                 2.1346                 0.0021

                     55                     56                     57
                      A                      A                      A
 Frequencies --   1218.8025              1237.9983              1240.6250
 Red. masses --      1.5485                 2.4494                 2.0019
 Frc consts  --      1.3553                 2.2118                 1.8154
 IR Inten    --      0.0000                 0.2876                 5.4406

                     58                     59                     60
                      A                      A                      A
 Frequencies --   1250.1891              1303.6313              1323.8606
 Red. masses --      2.1573                 2.8020                 1.9074
 Frc consts  --      1.9866                 2.8056                 1.9696
 IR Inten    --      0.0000                 2.5470                 0.0001

                     61                     62                     63
                      A                      A                      A
 Frequencies --   1358.5812              1374.1416              1382.2963
 Red. masses --      3.3314                 4.0804                 7.5709
 Frc consts  --      3.6228                 4.5396                 8.5231
 IR Inten    --      4.0072                 0.0000                 1.3342

                     64                     65                     66
                      A                      A                      A
 Frequencies --   1391.7641              1392.9460              1416.4865
 Red. masses --      5.7162                 3.6256                 2.1294
 Frc consts  --      6.5236                 4.1448                 2.5173
 IR Inten    --      0.0000                 0.0001                36.5645

                     67                     68                     69
                      A                      A                      A
 Frequencies --   1476.9699              1480.0220              1492.1043
 Red. masses --      2.2180                 2.1751                 2.4245
 Frc consts  --      2.8508                 2.8071                 3.1804
 IR Inten    --      0.0000                 3.2857                 0.0000

                     70                     71                     72
                      A                      A                      A
 Frequencies --   1508.3093              1536.8110              1559.0118
 Red. masses --      2.8713                 3.5139                 3.9949
 Frc consts  --      3.8487                 4.8897                 5.7208
 IR Inten    --      0.5259                 7.6114                 0.0000

                     73                     74                     75
                      A                      A                      A
 Frequencies --   1604.1950              1626.1332              1633.9101
 Red. masses --      5.3363                 7.3279                 4.3532
 Frc consts  --      8.0911                11.4167                 6.8473
 IR Inten    --      0.0000                12.1211                 0.0294

                     76                     77                     78
                      A                      A                      A
 Frequencies --   1634.9913              1646.1850              1659.2522
 Red. masses --      5.1098                 5.0234                 6.8326
 Frc consts  --      8.0480                 8.0205                11.0831
 IR Inten    --     19.0634                 8.7631                 0.0000

                     79                     80                     81
                      A                      A                      A
 Frequencies --   3166.6618              3167.1212              3168.7389
 Red. masses --      1.0861                 1.0864                 1.0859
 Frc consts  --      6.4167                 6.4206                 6.4239
 IR Inten    --      0.0004                 5.8582                 0.6464

                     82                     83                     84
                      A                      A                      A
 Frequencies --   3169.4239              3182.4121              3184.1153
 Red. masses --      1.0862                 1.0928                 1.0923
 Frc consts  --      6.4287                 6.5207                 6.5248
 IR Inten    --      0.0000                 0.0758                86.7118

                     85                     86                     87
                      A                      A                      A
 Frequencies --   3184.6857              3186.5283              3198.9688
 Red. masses --      1.0944                 1.0939                 1.0941
 Frc consts  --      6.5396                 6.5441                 6.5967
 IR Inten    --     22.8707                 0.0002                 0.9385

                     88                     89                     90
                      A                      A                      A
 Frequencies --   3199.4662              3214.7023              3215.1945
 Red. masses --      1.0939                 1.0887                 1.0886
 Frc consts  --      6.5978                 6.6290                 6.6305
 IR Inten    --      2.4774                22.2480                11.4023

 - Thermochemistry -
 -------------------
 Temperature   298.150 Kelvin.  Pressure   1.00000 Atm.
 Atom     1 has atomic number  6 and mass  12.00000

 Molecular mass:   252.09390 amu.
 Principal axes and moments of inertia in atomic units:
                           1         2         3
     Eigenvalues --  2873.283765432.238598305.52228
           X            1.00000  -0.00000  -0.00000
           Y            0.00000   1.00000  -0.00000
           Z            0.00000   0.00000   1.00000
 This molecule is an asymmetric top.
 Rotational symmetry number  1.
 Warning -- assumption of classical behavior for rotation
           may cause significant error
 Rotational temperatures (Kelvin)      0.03014     0.01594     0.01043
 Rotational constants (GHZ):           0.62811     0.33223     0.21729
 Zero-point vibrational energy     665943.4 (Joules/Mol)
                                  159.16430 (Kcal/Mol)
 Warning -- explicit consideration of  21 degrees of freedom as
           vibrations may cause significant error
 Vibrational temperatures:     33.05   136.75   184.62   255.29   296.91
          (Kelvin)            342.15   366.79   429.36   513.11   526.43
                              617.63   628.15   670.04   676.89   694.52
                              776.62   782.02   785.43   800.22   812.07
                              851.05   918.25   924.84   953.76   965.25
                             1103.94  1122.84  1126.68  1133.88  1140.84
                             1160.27  1168.64  1194.68  1204.81  1276.67
                             1284.70  1312.09  1326.79  1338.64  1394.63
                             1408.40  1416.68  1420.20  1426.78  1432.10
                             1537.63  1548.77  1602.06  1622.03  1660.05
                             1682.36  1691.62  1746.98  1749.91  1753.58
                             1781.20  1784.98  1798.74  1875.63  1904.74
                             1954.70  1977.08  1988.82  2002.44  2004.14
                             2038.01  2125.03  2129.42  2146.81  2170.12
                             2211.13  2243.07  2308.08  2339.64  2350.83
                             2352.39  2368.49  2387.29  4556.12  4556.78
                             4559.11  4560.09  4578.78  4581.23  4582.05
                             4584.70  4602.60  4603.32  4625.24  4625.95

 Zero-point correction=                           0.253644 (Hartree/Particle)
 Thermal correction to Energy=                    0.266552
 Thermal correction to Enthalpy=                  0.267496
 Thermal correction to Gibbs Free Energy=         0.213915
 Sum of electronic and zero-point Energies=           -769.423714
 Sum of electronic and thermal Energies=              -769.410807
 Sum of electronic and thermal Enthalpies=            -769.409863
 Sum of electronic and thermal Free Energies=         -769.463444

                     E (Thermal)             CV                S
                      KCal/Mol        Cal/Mol-Kelvin    Cal/Mol-Kelvin
 Total                  167.264             56.283            112.769
 Electronic               0.000              0.000              0.000
 Translational            0.889              2.981             42.474
 Rotational               0.889              2.981             33.227
 Vibrational            165.486             50.321             37.068
 Vibration     1          0.593              1.985              6.359
 Vibration     2          0.603              1.953              3.553
 Vibration     3          0.611              1.925              2.971
 Vibration     4          0.628              1.870              2.355
 Vibration     5          0.641              1.831              2.076
 Vibration     6          0.656              1.783              1.819
 Vibration     7          0.665              1.754              1.696
 Vibration     8          0.692              1.677              1.426
 Vibration     9          0.732              1.562              1.137
 Vibration    10          0.739              1.542              1.097
 Vibration    11          0.791              1.407              0.861
 Vibration    12          0.797              1.390              0.837
 Vibration    13          0.823              1.326              0.750
 Vibration    14          0.827              1.316              0.736
 Vibration    15          0.839              1.288              0.703
 Vibration    16          0.895              1.162              0.566
 Vibration    17          0.899              1.154              0.558
 Vibration    18          0.901              1.149              0.553
 Vibration    19          0.912              1.126              0.532
 Vibration    20          0.920              1.108              0.515
 Vibration    21          0.949              1.050              0.464

 Normal termination of Gaussian 16 at Fri Mar 15 21:04:30 2024.
