 Gaussian 16, Revision C.01,

 ---------------------------------------------
 #p B3LYP/Def2TZVPP geom=connectivity opt freq
 ---------------------------------------------

 Ground state geometry optimization and frequency calculation of peryle
 ne.
 ----------------------------------------------------------------------
 Symbolic Z-matrix:
 Charge =  0 Multiplicity = 1

 SCF Done:  E(RB3LYP) =  -769.659654989     A.U. after   13 cycles
 SCF Done:  E(RB3LYP) =  -769.676033584     A.U. after   12 cycles
 SCF Done:  E(RB3LYP) =  -769.677298488     A.U. after   10 cycles
 SCF Done:  E(RB3LYP) =  -769.677355880     A.U. after    8 cycles
 SCF Done:  E(RB3LYP) =  -769.677358959     A.U. after    7 cycles
 Optimization completed.
    -- Stationary point found.
 Normal termination of Gaussian 16 at Wed Mar 20 15:47:36 2024.

 ---------------------------------------------------------------------
 #P Geom=AllCheck Guess=TCheck SCRF=Check GenChk RB3LYP/def2TZVPP Freq
 ---------------------------------------------------------------------

 ----------------------------------------------------------------------
 Ground state geometry optimization and frequency calculation of peryle
 ne.
 ----------------------------------------------------------------------
 Charge =  0 Multiplicity = 1

 SCF Done:  E(RB3LYP) =  -769.677358959     A.U. after    1 cycles
 Optimization completed.
 Normal termination of Gaussian 16 at Wed Mar 20 16:23:33 2024.

 ----------------------------------------------------------------------
 #p B3LYP/Def2TZVPP TD=(NStates=2, Root=1) geom=connectivity opt freq=s
 avenormalmodes
 ----------------------------------------------------------------------

 One point excitation calculation for the perylene molecule, followed b
 y the excited state geometry optimization.
 ----------------------------------------------------------------------
 Symbolic Z-matrix:
 Charge =  0 Multiplicity = 1

 SCF Done:  E(RB3LYP) =  -769.658687609     A.U. after   13 cycles
 Total Energy, E(TD-HF/TD-DFT) =  -769.556466097
 SCF Done:  E(RB3LYP) =  -769.674059599     A.U. after   12 cycles
 Total Energy, E(TD-HF/TD-DFT) =  -769.577880119
 SCF Done:  E(RB3LYP) =  -769.671255113     A.U. after   12 cycles
 Total Energy, E(TD-HF/TD-DFT) =  -769.580724711
 SCF Done:  E(RB3LYP) =  -769.671528541     A.U. after   10 cycles
 Total Energy, E(TD-HF/TD-DFT) =  -769.580880742
 SCF Done:  E(RB3LYP) =  -769.671453544     A.U. after    8 cycles
 Total Energy, E(TD-HF/TD-DFT) =  -769.580888877
 SCF Done:  E(RB3LYP) =  -769.671430865     A.U. after    7 cycles
 Total Energy, E(TD-HF/TD-DFT) =  -769.580889327
    -- Stationary point found.
 Normal termination of Gaussian 16 at Wed Mar 20 18:47:01 2024.

 ----------------------------------------------------------------------
 #P Geom=AllCheck Guess=TCheck SCRF=Check GenChk RB3LYP TD(FC,Read)/def
 2TZVPP Freq
 ----------------------------------------------------------------------

 ----------------------------------------------------------------------
 One point excitation calculation for the perylene molecule, followed b
 y the excited state geometry optimization.
 ----------------------------------------------------------------------
 Charge =  0 Multiplicity = 1

                         Standard orientation:
 ---------------------------------------------------------------------
 Center     Atomic      Atomic             Coordinates (Angstroms)
 Number     Number       Type             X           Y           Z
 ---------------------------------------------------------------------
      1          6           0       -2.851530   -2.432740    0.000038
      2          6           0       -1.468615   -2.447647    0.000035
      3          6           0       -0.719139   -1.240912    0.000010
      4          6           0       -1.420843   -0.000054   -0.000000
      5          6           0       -2.852197    0.000003   -0.000000
      6          6           0       -3.544045   -1.229598    0.000017
      7          6           0        0.719150   -1.240927   -0.000009
      8          6           0       -0.719124    1.240751   -0.000009
      9          6           0        0.719121    1.240753    0.000011
     10          6           0        1.420837   -0.000030    0.000001
     11          6           0        1.468399    2.447595    0.000035
     12          6           0       -1.468409    2.447580   -0.000034
     13          6           0       -2.851347    2.432801   -0.000040
     14          6           0       -3.543943    1.229729   -0.000018
     15          1           0       -4.626298    1.221765   -0.000018
     16          1           0       -3.396242    3.367729   -0.000061
     17          1           0       -3.396543   -3.367606    0.000059
     18          1           0       -4.626396   -1.221542    0.000017
     19          6           0        1.468631   -2.447644   -0.000034
     20          6           0        2.851559   -2.432738   -0.000039
     21          6           0        3.544052   -1.229589   -0.000019
     22          6           0        2.852195    0.000029   -0.000001
     23          1           0        3.396562   -3.367601   -0.000060
     24          1           0        4.626407   -1.221527   -0.000021
     25          6           0        2.851324    2.432820    0.000039
     26          1           0        3.396249    3.367730    0.000059
     27          6           0        3.543928    1.229741    0.000017
     28          1           0        4.626284    1.221790    0.000016
     29          1           0       -0.960432   -3.398815    0.000066
     30          1           0        0.960445   -3.398816   -0.000063
     31          1           0       -0.960062    3.398689   -0.000062
     32          1           0        0.959998    3.398671    0.000065
 ---------------------------------------------------------------------

 SCF Done:  E(RB3LYP) =  -769.671430865     A.U. after    1 cycles

 Excitation energies and oscillator strengths:

 Excited State   1:      Singlet-A      2.4638 eV  503.23 nm  f=0.3305  <S**2>=0.000
      66 -> 67         0.70745
      66 <- 67        -0.10150
 This state for optimization and/or second-order correction.
 Total Energy, E(TD-HF/TD-DFT) =  -769.580889317
 Copying the excited state density for this state as the 1-particle RhoCI density.

 Excited State   2:      Singlet-A      3.4287 eV  361.61 nm  f=0.0000  <S**2>=0.000
      65 -> 67         0.28318
      66 -> 68        -0.59032
      66 -> 69        -0.25523

 The electronic state is 1-A.
 Alpha  occ. eigenvalues --  -10.19373 -10.19371 -10.19336 -10.19330 -10.19085
 Alpha  occ. eigenvalues --  -10.19083 -10.18932 -10.18931 -10.18056 -10.18056
 Alpha  occ. eigenvalues --  -10.18054 -10.18052 -10.18001 -10.18001 -10.18000
 Alpha  occ. eigenvalues --  -10.17999 -10.17941 -10.17941 -10.17941 -10.17941
 Alpha  occ. eigenvalues --   -0.90057  -0.87158  -0.84264  -0.81966  -0.81435
 Alpha  occ. eigenvalues --   -0.75858  -0.75590  -0.74958  -0.74469  -0.69305
 Alpha  occ. eigenvalues --   -0.65552  -0.63867  -0.63332  -0.61934  -0.59648
 Alpha  occ. eigenvalues --   -0.55140  -0.54081  -0.53833  -0.51531  -0.49913
 Alpha  occ. eigenvalues --   -0.48998  -0.47978  -0.46719  -0.45919  -0.43840
 Alpha  occ. eigenvalues --   -0.42918  -0.42339  -0.42310  -0.41504  -0.41238
 Alpha  occ. eigenvalues --   -0.39398  -0.38821  -0.38781  -0.38198  -0.36560
 Alpha  occ. eigenvalues --   -0.35822  -0.35735  -0.32929  -0.32761  -0.32546
 Alpha  occ. eigenvalues --   -0.32441  -0.26179  -0.26067  -0.25739  -0.25527
 Alpha  occ. eigenvalues --   -0.18584
 Alpha virt. eigenvalues --   -0.09082  -0.03226  -0.02566  -0.01519  -0.00823
 Alpha virt. eigenvalues --    0.04238   0.05309   0.05508   0.05633   0.06068
 Alpha virt. eigenvalues --    0.06882   0.07133   0.08674   0.09301   0.10180

 Mulliken charges:
               1
     1  C   -0.101609
     2  C   -0.148938
     3  C    0.069863
     4  C   -0.159620
     5  C    0.032411
     6  C   -0.113113
     7  C    0.069850
     8  C    0.070081
     9  C    0.070095
    10  C   -0.159613
    11  C   -0.148981
    12  C   -0.148961
    13  C   -0.101596
    14  C   -0.113151
    15  H    0.118153
    16  H    0.124533
    17  H    0.124533
    18  H    0.118157
    19  C   -0.148935
    20  C   -0.101612
    21  C   -0.113117
    22  C    0.032420
    23  H    0.124537
    24  H    0.118155
    25  C   -0.101591
    26  H    0.124535
    27  C   -0.113147
    28  H    0.118153
    29  H    0.114634
    30  H    0.114633
    31  H    0.114619
    32  H    0.114621
 Sum of Mulliken charges =  -0.00000

 Dipole moment (field-independent basis, Debye):
    X=             -0.0000    Y=             -0.0001    Z=             -0.0000  Tot=              0.0001
 Quadrupole moment (field-independent basis, Debye-Ang):
   XX=           -101.8240   YY=           -100.0613   ZZ=           -122.9044
   XY=             -0.0001   XZ=             -0.0000   YZ=             -0.0000

  Exact polarizability:     431.925      -0.001     382.152      -0.000       0.000     105.935
 Approx polarizability:     775.032      -0.007     560.182      -0.000      -0.000     184.329

 Optimization completed.
    -- Stationary point found.
 Normal termination of Gaussian 16 at Wed Mar 20 20:12:47 2024.

 ----------------------------------------------------------------------
 #p B3LYP/Def2TZVPP Freq(ReadFC, FC, ReadFCHT) NoSymm geom=check guess=
 read
 ----------------------------------------------------------------------

 FC analysis for perylene, investigating the S1 PES and simulating the
 absorption spectrum.
 ----------------------------------------------------------------------
 Structure from the checkpoint file:  "Perylene2-1.chk"
 Charge =  0 Multiplicity = 1

 Normal termination of Gaussian 16 at Wed Mar 20 20:15:32 2024.
 Gaussian 16:  ES64L-G16RevC.01  3-Jul-2019

 ----------------------------------------------------------------------
 #p B3LYP/Def2TZVPP Freq(ReadFC, FC, ReadFCHT, Emission) NoSymm geom=ch
 eck guess=read
 ----------------------------------------------------------------------

 -----------------------------------------------------------
 FC analysis for perylene, simulating the emission spectrum.
 -----------------------------------------------------------
 Structure from the checkpoint file:  "Perylene2-1.chk"
 Charge =  0 Multiplicity = 1

                      1                      2                      3
                      A                      A                      A
 Frequencies --     22.9728                95.0458               128.3206
 Red. masses --      4.6969                 4.6784                 3.5009
 Frc consts  --      0.0015                 0.0249                 0.0340
 IR Inten    --      0.0000                 0.7594                 0.0000

                      4                      5                      6
                      A                      A                      A
 Frequencies --    177.4335               206.3622               237.8085
 Red. masses --      4.3236                 3.9486                 3.2901
 Frc consts  --      0.0802                 0.0991                 0.1096
 IR Inten    --      6.4443                 0.0000                 0.0000

                      7                      8                      9
                      A                      A                      A
 Frequencies --    254.9297               298.4191               356.6551
 Red. masses --      5.0216                 4.8978                 6.6085
 Frc consts  --      0.1923                 0.2570                 0.4953
 IR Inten    --      0.1661                 0.0000                 0.0000

                     10                     11                     12
                      A                      A                      A
 Frequencies --    365.8843               429.2718               436.5850
 Red. masses --      6.9702                 4.3313                 4.9459
 Frc consts  --      0.5498                 0.4703                 0.5554
 IR Inten    --      0.0000                 0.0000                 0.0000

                     13                     14                     15
                      A                      A                      A
 Frequencies --    465.7010               470.4621               482.7161
 Red. masses --      3.0882                 4.6118                 3.3982
 Frc consts  --      0.3946                 0.6014                 0.4665
 IR Inten    --      0.0000                 3.1876                 0.4558

                     16                     17                     18
                      A                      A                      A
 Frequencies --    539.7755               543.5343               545.8987
 Red. masses --      3.7455                 7.4020                 6.3503
 Frc consts  --      0.6430                 1.2884                 1.1150
 IR Inten    --      0.0000                 0.9354                 0.0000

                     19                     20                     21
                      A                      A                      A
 Frequencies --    556.2270               564.4146               591.5092
 Red. masses --      6.5434                 3.9171                 5.8899
 Frc consts  --      1.1928                 0.7352                 1.2142
 IR Inten    --      0.0000                 9.9495                 3.2358

                     22                     23                     24
                      A                      A                      A
 Frequencies --    638.2125               642.7954               662.8985
 Red. masses --      7.6988                 3.7200                 2.0665
 Frc consts  --      1.8476                 0.9056                 0.5350
 IR Inten    --      0.0000                 0.0000                 0.0000

                     25                     26                     27
                      A                      A                      A
 Frequencies --    670.8848               767.2733               780.4118
 Red. masses --      3.8316                 1.1859                 1.4270
 Frc consts  --      1.0161                 0.4113                 0.5120
 IR Inten    --      0.0000                 0.0003                 0.0000

                     28                     29                     30
                      A                      A                      A
 Frequencies --    783.0788               788.0854               792.9240
 Red. masses --      1.6073                 5.8528                 1.8938
 Frc consts  --      0.5807                 2.1417                 0.7015
 IR Inten    --      0.0000                 2.7266               110.4909

                     31                     32                     33
                      A                      A                      A
 Frequencies --    806.4267               812.2479               830.3421
 Red. masses --      5.2107                 5.4287                 6.7277
 Frc consts  --      1.9965                 2.1102                 2.7329
 IR Inten    --      8.8357                 0.0000                 7.2786

                     34                     35                     36
                      A                      A                      A
 Frequencies --    837.3833               887.3317               892.9135
 Red. masses --      2.7047                 5.7276                 1.5320
 Frc consts  --      1.1174                 2.6570                 0.7197
 IR Inten    --     64.9320                 0.0000                 0.0000

                     37                     38                     39
                      A                      A                      A
 Frequencies --    911.9447               922.1643               930.3992
 Red. masses --      1.3306                 1.6546                 1.4477
 Frc consts  --      0.6520                 0.8290                 0.7384
 IR Inten    --      0.0001                 0.0000                 0.2844

                     40                     41                     42
                      A                      A                      A
 Frequencies --    969.3147               978.8865               984.6425
 Red. masses --      5.7708                 1.3031                 1.3003
 Frc consts  --      3.1946                 0.7357                 0.7428
 IR Inten    --      0.0000                 0.0000                 0.0000

                     43                     44                     45
                      A                      A                      A
 Frequencies --    987.0871               991.6632               995.3603
 Red. masses --      1.3215                 1.3044                 4.3158
 Frc consts  --      0.7586                 0.7557                 2.5192
 IR Inten    --      0.0000                 0.8028                 0.0000

                     46                     47                     48
                      A                      A                      A
 Frequencies --   1068.7036              1076.4464              1113.4852
 Red. masses --      5.6734                 2.8182                 1.7055
 Frc consts  --      3.8178                 1.9240                 1.2459
 IR Inten    --      6.7887                 0.0000                 3.0779

                     49                     50                     51
                      A                      A                      A
 Frequencies --   1127.3755              1153.7957              1169.2963
 Red. masses --      2.1769                 1.5120                 1.3527
 Frc consts  --      1.6302                 1.1860                 1.0897
 IR Inten    --      0.0000                 5.4571                 0.0000

                     52                     53                     54
                      A                      A                      A
 Frequencies --   1175.7377              1214.2091              1216.2465
 Red. masses --      1.4232                 1.4985                 1.2369
 Frc consts  --      1.1591                 1.3016                 1.0780
 IR Inten    --      2.0805                 2.1346                 0.0021

                     55                     56                     57
                      A                      A                      A
 Frequencies --   1218.8025              1237.9983              1240.6250
 Red. masses --      1.5485                 2.4494                 2.0019
 Frc consts  --      1.3553                 2.2118                 1.8154
 IR Inten    --      0.0000                 0.2876                 5.4406

                     58                     59                     60
                      A                      A                      A
 Frequencies --   1250.1891              1303.6313              1323.8611
 Red. masses --      2.1573                 2.8020                 1.9074
 Frc consts  --      1.9866                 2.8056                 1.9696
 IR Inten    --      0.0000                 2.5470                 0.0001

                     61                     62                     63
                      A                      A                      A
 Frequencies --   1358.5812              1374.1416              1382.2963
 Red. masses --      3.3314                 4.0804                 7.5709
 Frc consts  --      3.6228                 4.5396                 8.5231
 IR Inten    --      4.0072                 0.0000                 1.3342

                     64                     65                     66
                      A                      A                      A
 Frequencies --   1391.7643              1392.9461              1416.4865
 Red. masses --      5.7169                 3.6254                 2.1294
 Frc consts  --      6.5245                 4.1445                 2.5173
 IR Inten    --      0.0000                 0.0001                36.5645

                     67                     68                     69
                      A                      A                      A
 Frequencies --   1476.9700              1480.0220              1492.1043
 Red. masses --      2.2181                 2.1751                 2.4245
 Frc consts  --      2.8508                 2.8071                 3.1804
 IR Inten    --      0.0000                 3.2857                 0.0000

                     70                     71                     72
                      A                      A                      A
 Frequencies --   1508.3093              1536.8110              1559.0118
 Red. masses --      2.8713                 3.5139                 3.9949
 Frc consts  --      3.8487                 4.8897                 5.7208
 IR Inten    --      0.5259                 7.6114                 0.0000

                     73                     74                     75
                      A                      A                      A
 Frequencies --   1604.1950              1626.1332              1633.9103
 Red. masses --      5.3363                 7.3279                 4.3532
 Frc consts  --      8.0911                11.4167                 6.8472
 IR Inten    --      0.0000                12.1211                 0.0294

                     76                     77                     78
                      A                      A                      A
 Frequencies --   1634.9913              1646.1850              1659.2522
 Red. masses --      5.1098                 5.0234                 6.8326
 Frc consts  --      8.0480                 8.0205                11.0831
 IR Inten    --     19.0634                 8.7631                 0.0000

                     79                     80                     81
                      A                      A                      A
 Frequencies --   3166.6618              3167.1212              3168.7389
 Red. masses --      1.0861                 1.0864                 1.0859
 Frc consts  --      6.4167                 6.4206                 6.4239
 IR Inten    --      0.0004                 5.8582                 0.6464

                     82                     83                     84
                      A                      A                      A
 Frequencies --   3169.4240              3182.4121              3184.1153
 Red. masses --      1.0862                 1.0928                 1.0923
 Frc consts  --      6.4287                 6.5207                 6.5248
 IR Inten    --      0.0000                 0.0758                86.7118

                     85                     86                     87
                      A                      A                      A
 Frequencies --   3184.6857              3186.5293              3198.9688
 Red. masses --      1.0944                 1.0939                 1.0941
 Frc consts  --      6.5396                 6.5441                 6.5967
 IR Inten    --     22.8707                 0.0002                 0.9385

                     88                     89                     90
                      A                      A                      A
 Frequencies --   3199.4662              3214.7027              3215.1953
 Red. masses --      1.0939                 1.0887                 1.0886
 Frc consts  --      6.5978                 6.6290                 6.6305
 IR Inten    --      2.4774                22.2856                11.3648

 - Thermochemistry -
 -------------------
 Temperature   298.150 Kelvin.  Pressure   1.00000 Atm.
 Atom     1 has atomic number  6 and mass  12.00000

 Molecular mass:   252.09390 amu.
 Principal axes and moments of inertia in atomic units:
                           1         2         3
     Eigenvalues --  2873.283765432.238598305.52228
           X            0.99984  -0.01814  -0.00016
           Y            0.01814   0.99984  -0.00032
           Z            0.00016   0.00031   1.00000
 This molecule is an asymmetric top.
 Rotational symmetry number  1.
 Warning -- assumption of classical behavior for rotation
           may cause significant error
 Rotational temperatures (Kelvin)      0.03014     0.01594     0.01043
 Rotational constants (GHZ):           0.62811     0.33223     0.21729
 Zero-point vibrational energy     665944.0 (Joules/Mol)
                                  159.16443 (Kcal/Mol)
 Warning -- explicit consideration of  21 degrees of freedom as
           vibrations may cause significant error
 Vibrational temperatures:     33.05   136.75   184.62   255.29   296.91
          (Kelvin)            342.15   366.79   429.36   513.15   526.43
                              617.63   628.15   670.04   676.89   694.52
                              776.62   782.02   785.43   800.29   812.07
                              851.05   918.25   924.84   953.76   965.25
                             1103.94  1122.84  1126.68  1133.88  1140.84
                             1160.27  1168.64  1194.68  1204.81  1276.67
                             1284.70  1312.09  1326.79  1338.64  1394.63
                             1408.40  1416.68  1420.20  1426.78  1432.10
                             1537.63  1548.77  1602.06  1622.04  1660.05
                             1682.36  1691.62  1746.98  1749.91  1753.58
                             1781.20  1784.98  1798.74  1875.63  1904.74
                             1954.70  1977.08  1988.82  2002.44  2004.14
                             2038.01  2125.03  2129.42  2146.81  2170.12
                             2211.13  2243.07  2308.08  2339.64  2350.83
                             2352.39  2368.49  2387.29  4556.12  4556.78
                             4559.11  4560.09  4578.78  4581.23  4582.05
                             4584.70  4602.60  4603.32  4625.24  4625.95

 Zero-point correction=                           0.253645 (Hartree/Particle)
 Thermal correction to Energy=                    0.266552
 Thermal correction to Enthalpy=                  0.267496
 Thermal correction to Gibbs Free Energy=         0.213916
 Sum of electronic and zero-point Energies=           -769.423714
 Sum of electronic and thermal Energies=              -769.410807
 Sum of electronic and thermal Enthalpies=            -769.409863
 Sum of electronic and thermal Free Energies=         -769.463443

                     E (Thermal)             CV                S
                      KCal/Mol        Cal/Mol-Kelvin    Cal/Mol-Kelvin
 Total                  167.264             56.283            112.769
 Electronic               0.000              0.000              0.000
 Translational            0.889              2.981             42.474
 Rotational               0.889              2.981             33.227
 Vibrational            165.486             50.321             37.068
 Vibration     1          0.593              1.985              6.359
 Vibration     2          0.603              1.953              3.553
 Vibration     3          0.611              1.925              2.971
 Vibration     4          0.628              1.870              2.355
 Vibration     5          0.641              1.831              2.076
 Vibration     6          0.656              1.783              1.819
 Vibration     7          0.665              1.754              1.696
 Vibration     8          0.692              1.677              1.426
 Vibration     9          0.732              1.562              1.137
 Vibration    10          0.739              1.542              1.097
 Vibration    11          0.791              1.407              0.861
 Vibration    12          0.797              1.390              0.837
 Vibration    13          0.823              1.326              0.750
 Vibration    14          0.827              1.316              0.736
 Vibration    15          0.839              1.288              0.703
 Vibration    16          0.895              1.162              0.566
 Vibration    17          0.899              1.154              0.558
 Vibration    18          0.901              1.149              0.553
 Vibration    19          0.912              1.126              0.531
 Vibration    20          0.920              1.108              0.515
 Vibration    21          0.949              1.050              0.464

 Normal termination of Gaussian 16 at Wed Mar 20 20:16:16 2024.
