 Gaussian 16, Revision C.01,

 --------------------------------------------
 #p CAM-B3LYP/TZVP geom=connectivity Opt Freq
 --------------------------------------------

 e followed up by TD-DFT, excited state opt and freq, and FC-HT analysi
 s.
 ----------------------------------------------------------------------
 Symbolic Z-matrix:
 Charge =  0 Multiplicity = 1

 SCF Done:  E(RCAM-B3LYP) =  -191.878135120     A.U. after   15 cycles
 SCF Done:  E(RCAM-B3LYP) =  -191.888020578     A.U. after   13 cycles
 SCF Done:  E(RCAM-B3LYP) =  -191.888395311     A.U. after   11 cycles
 SCF Done:  E(RCAM-B3LYP) =  -191.888412764     A.U. after    9 cycles
 SCF Done:  E(RCAM-B3LYP) =  -191.888413759     A.U. after    8 cycles
 Optimization completed.
    -- Stationary point found.
 Normal termination of Gaussian 16 at Fri Mar  1 15:31:36 2024.

 --------------------------------------------------------------------
 #P Geom=AllCheck Guess=TCheck SCRF=Check GenChk RCAM-B3LYP/TZVP Freq
 --------------------------------------------------------------------

 Ground state optimization and frequency calculation for acrolein, to b
 e followed up by TD-DFT, excited state opt and freq, and FC-HT analysi
 s.
 ----------------------------------------------------------------------
 Charge =  0 Multiplicity = 1

 SCF Done:  E(RCAM-B3LYP) =  -191.888413759     A.U. after    1 cycles
 Optimization completed.
 Normal termination of Gaussian 16 at Fri Mar  1 15:31:45 2024.

 ----------------------------------------------------------------------
 #p CAM-B3LYP/TZVP TD=(nstates=2, Root=1) geom=check Density=Current Op
 t Freq=SaveNormalModes
 ----------------------------------------------------------------------

 state optimized geometry, optimized and subjected to a frequency calcu
 lation.
 ----------------------------------------------------------------------
 Structure from the checkpoint file:  "Acrolein2.chk"
 Charge =  0 Multiplicity = 1

 SCF Done:  E(RCAM-B3LYP) =  -191.888413759     A.U. after   14 cycles
 Total Energy, E(TD-HF/TD-DFT) =  -191.747300355
 SCF Done:  E(RCAM-B3LYP) =  -191.883654971     A.U. after   13 cycles
 Total Energy, E(TD-HF/TD-DFT) =  -191.755552137
 SCF Done:  E(RCAM-B3LYP) =  -191.876258386     A.U. after   13 cycles
 Total Energy, E(TD-HF/TD-DFT) =  -191.757403593
 SCF Done:  E(RCAM-B3LYP) =  -191.876229709     A.U. after   11 cycles
 Total Energy, E(TD-HF/TD-DFT) =  -191.757502508
 SCF Done:  E(RCAM-B3LYP) =  -191.876269617     A.U. after    9 cycles
 Total Energy, E(TD-HF/TD-DFT) =  -191.757512298
 SCF Done:  E(RCAM-B3LYP) =  -191.876351160     A.U. after    9 cycles
 Total Energy, E(TD-HF/TD-DFT) =  -191.757514110
 SCF Done:  E(RCAM-B3LYP) =  -191.876359296     A.U. after    8 cycles
 Total Energy, E(TD-HF/TD-DFT) =  -191.757514565
    -- Stationary point found.
 Normal termination of Gaussian 16 at Fri Mar  1 15:32:48 2024.

 ----------------------------------------------------------------------
 #P Geom=AllCheck Guess=TCheck SCRF=Check GenChk RCAM-B3LYP TD(FC,Read)
 /TZVP Freq
 ----------------------------------------------------------------------

 Calculating the first two vertically excited states within the ground
 state optimized geometry, optimized and subjected to a frequency calcu
 lation.
 ----------------------------------------------------------------------
 Charge =  0 Multiplicity = 1

                         Standard orientation:
 ---------------------------------------------------------------------
 Center     Atomic      Atomic             Coordinates (Angstroms)
 Number     Number       Type             X           Y           Z
 ---------------------------------------------------------------------
      1          8           0       -1.192791   -1.401446    0.000000
      2          6           0       -0.113444   -0.711678    0.000000
      3          1           0        0.789890   -1.341619    0.000000
      4          6           0       -0.000000    0.688791   -0.000000
      5          1           0       -0.936720    1.233474   -0.000000
      6          6           0        1.175366    1.360948   -0.000000
      7          1           0        2.129274    0.851163   -0.000000
      8          1           0        1.188348    2.440183   -0.000000
 ---------------------------------------------------------------------

 SCF Done:  E(RCAM-B3LYP) =  -191.876359296     A.U. after    1 cycles

 Excitation energies and oscillator strengths:

 Excited State   1:      Singlet-A"     3.2339 eV  383.39 nm  f=0.0002  <S**2>=0.000
      15 -> 16         0.68563
      15 -> 17         0.16854
 This state for optimization and/or second-order correction.
 Total Energy, E(TD-HF/TD-DFT) =  -191.757514536
 Copying the excited state density for this state as the 1-particle RhoCI density.

 Excited State   2:      Singlet-A"     7.1100 eV  174.38 nm  f=0.0000  <S**2>=0.000
      12 -> 16        -0.62129
      15 -> 17         0.30696

 The electronic state is 1-A'.
 Alpha  occ. eigenvalues --  -19.19999 -10.34379 -10.29590 -10.28086  -1.09874
 Alpha  occ. eigenvalues --   -0.90478  -0.75282  -0.65860  -0.56497  -0.55889
 Alpha  occ. eigenvalues --   -0.48533  -0.47035  -0.46468  -0.35936  -0.33225
 Alpha virt. eigenvalues --   -0.04860   0.08384   0.09151   0.09861   0.13519
 Alpha virt. eigenvalues --    0.15533   0.17469   0.20358   0.23369   0.23478
 Alpha virt. eigenvalues --    0.27910   0.29936   0.31451   0.34544   0.36493

 Mulliken charges:
               1
     1  O   -0.133538
     2  C   -0.008409
     3  H    0.162714
     4  C   -0.094453
     5  H    0.156716
     6  C   -0.341194
     7  H    0.127060
     8  H    0.131103
 Sum of Mulliken charges =  -0.00000

 Dipole moment (field-independent basis, Debye):
    X=              1.1374    Y=              0.3050    Z=             -0.0000  Tot=              1.1776
 Quadrupole moment (field-independent basis, Debye-Ang):
   XX=            -24.1212   YY=            -23.4900   ZZ=            -27.0202
   XY=             -3.5674   XZ=              0.0000   YZ=              0.0000

  Exact polarizability:      47.948      17.542      56.183       0.000      -0.000      24.052
 Approx polarizability:      64.004      23.318      54.731       0.000       0.000      25.568

 Optimization completed.
    -- Stationary point found.
 Normal termination of Gaussian 16 at Fri Mar  1 15:33:07 2024.

 ----------------------------------------------------------------------
 #p CAM-B3LYP/TZVP Freq(ReadFC, FC, ReadFCHT) NoSymm geom=check guess=r
 ead
 ----------------------------------------------------------------------

 ----------------------------------------------------
 FC simulation of UV absorption spectrum for Acrolein
 ----------------------------------------------------
 Structure from the checkpoint file:  "Acrolein1.chk"
 Charge =  0 Multiplicity = 1

 Normal termination of Gaussian 16 at Fri Mar  1 15:33:17 2024.
 Gaussian 16:  ES64L-G16RevC.01  3-Jul-2019

 ----------------------------------------------------------------------
 #p CAM-B3LYP/TZVP Freq(ReadFC, FC, ReadFCHT, Emission) NoSymm geom=che
 ck guess=read
 ----------------------------------------------------------------------

 --------------------------------------------------
 FC simulation of UV emission spectrum for Acrolein
 --------------------------------------------------
 Structure from the checkpoint file:  "Acrolein1.chk"
 Charge =  0 Multiplicity = 1

                      1                      2                      3
                      A                      A                      A
 Frequencies --    165.8723               327.6489               581.6238
 Red. masses --      3.3889                 2.6742                 4.9234
 Frc consts  --      0.0549                 0.1691                 0.9813
 IR Inten    --      5.1549                10.9306                 5.3973

                      4                      5                      6
                      A                      A                      A
 Frequencies --    618.3021               933.5285              1019.2929
 Red. masses --      1.1858                 1.5861                 1.2945
 Frc consts  --      0.2671                 0.8144                 0.7924
 IR Inten    --     12.1809                25.2341                59.3151

                      7                      8                      9
                      A                      A                      A
 Frequencies --   1041.1083              1045.0512              1185.6926
 Red. masses --      1.3736                 1.4135                 2.0067
 Frc consts  --      0.8772                 0.9095                 1.6622
 IR Inten    --      1.8281                 8.9786                37.9511

                     10                     11                     12
                      A                      A                      A
 Frequencies --   1313.4077              1408.4586              1469.9686
 Red. masses --      1.4584                 1.1792                 1.2082
 Frc consts  --      1.4822                 1.3782                 1.5381
 IR Inten    --      2.7152                 7.1941                13.7975

                     13                     14                     15
                      A                      A                      A
 Frequencies --   1719.6077              1825.3644              2922.6547
 Red. masses --      4.5242                 9.9133                 1.0841
 Frc consts  --      7.8822                19.4611                 5.4559
 IR Inten    --      1.8215               267.9462                82.8608

                     16                     17                     18
                      A                      A                      A
 Frequencies --   3158.9613              3201.8109              3251.7539
 Red. masses --      1.0611                 1.0950                 1.1154
 Frc consts  --      6.2389                 6.6136                 6.9489
 IR Inten    --      3.6728                 0.8254                 3.4212

 - Thermochemistry -
 -------------------
 Temperature   298.150 Kelvin.  Pressure   1.00000 Atm.
 Atom     1 has atomic number  8 and mass  15.99491

 Molecular mass:    56.02621 amu.
 Principal axes and moments of inertia in atomic units:
                           1         2         3
     Eigenvalues --    37.35598 384.27847 421.63445
           X            0.89930   0.43734  -0.00000
           Y           -0.43708   0.89875  -0.03490
           Z           -0.01526   0.03138   0.99939
 This molecule is an asymmetric top.
 Rotational symmetry number  1.
 Rotational temperatures (Kelvin)      2.31861     0.22539     0.20542
 Rotational constants (GHZ):          48.31197     4.69644     4.28035
 Zero-point vibrational energy     162633.0 (Joules/Mol)
                                   38.87021 (Kcal/Mol)
 Warning -- explicit consideration of   4 degrees of freedom as
           vibrations may cause significant error
 Vibrational temperatures:    238.65   471.41   836.83   889.60  1343.14
          (Kelvin)           1466.54  1497.92  1503.60  1705.95  1889.70
                             2026.46  2114.96  2474.13  2626.29  4205.05
                             4545.04  4606.69  4678.55

 Zero-point correction=                           0.061944 (Hartree/Particle)
 Thermal correction to Energy=                    0.066288
 Thermal correction to Enthalpy=                  0.067232
 Thermal correction to Gibbs Free Energy=         0.035665
 Sum of electronic and zero-point Energies=           -191.826470
 Sum of electronic and thermal Energies=              -191.822126
 Sum of electronic and thermal Enthalpies=            -191.821182
 Sum of electronic and thermal Free Energies=         -191.852749

                     E (Thermal)             CV                S
                      KCal/Mol        Cal/Mol-Kelvin    Cal/Mol-Kelvin
 Total                   41.596             13.607             66.439
 Electronic               0.000              0.000              0.000
 Translational            0.889              2.981             37.991
 Rotational               0.889              2.981             23.319
 Vibrational             39.819              7.646              5.129
 Vibration     1          0.624              1.884              2.482
 Vibration     2          0.711              1.620              1.272
 Vibration     3          0.938              1.071              0.482
 Vibration     4          0.978              0.993              0.419

 Normal termination of Gaussian 16 at Fri Mar  1 15:33:26 2024.
