 Gaussian 16, Revision C.01,

 ----------------------------------------------------------------------
 #p CAM-B3LYP/TZVP SCRF(solvent=cyclohexane) geom=connectivity Opt Freq
 ----------------------------------------------------------------------

 Ground state calculation for DPB molecule, later to be used for excite
 d state and FC-HT analysis.
 ----------------------------------------------------------------------
 Symbolic Z-matrix:
 Charge =  0 Multiplicity = 1

 SCF Done:  E(RCAM-B3LYP) =  -617.918286927     A.U. after   12 cycles
 SCF Done:  E(RCAM-B3LYP) =  -617.931166366     A.U. after   11 cycles
 SCF Done:  E(RCAM-B3LYP) =  -617.931969197     A.U. after   10 cycles
 SCF Done:  E(RCAM-B3LYP) =  -617.931997592     A.U. after    9 cycles
 SCF Done:  E(RCAM-B3LYP) =  -617.932021862     A.U. after    9 cycles
 SCF Done:  E(RCAM-B3LYP) =  -617.932996801     A.U. after   13 cycles
 SCF Done:  E(RCAM-B3LYP) =  -617.922721208     A.U. after   13 cycles
 SCF Done:  E(RCAM-B3LYP) =  -617.935743236     A.U. after   11 cycles
 SCF Done:  E(RCAM-B3LYP) =  -617.938275155     A.U. after   14 cycles
 SCF Done:  E(RCAM-B3LYP) =  -617.940512525     A.U. after   12 cycles
 SCF Done:  E(RCAM-B3LYP) =  -617.945204418     A.U. after    7 cycles
 Optimization completed on the basis of negligible forces.
    -- Stationary point found.
 Normal termination of Gaussian 16 at Thu Mar  7 12:36:03 2024.

 --------------------------------------------------------------------
 #P Geom=AllCheck Guess=TCheck SCRF=Check GenChk RCAM-B3LYP/TZVP Freq
 --------------------------------------------------------------------

 ----------------------------------------------------------------------
 Ground state calculation for DPB molecule, later to be used for excite
 d state and FC-HT analysis.
 ----------------------------------------------------------------------
 Charge =  0 Multiplicity = 1

 SCF Done:  E(RCAM-B3LYP) =  -617.945204418     A.U. after    1 cycles
 Optimization completed on the basis of negligible forces.
 Normal termination of Gaussian 16 at Thu Mar  7 12:39:47 2024.

 ----------------------------------------------------------------------
 #p CAM-B3LYP/TZVP SCRF(solvent=cyclohexane) geom=connectivity Opt Freq
 ----------------------------------------------------------------------

 -------------------------------------------------
 Manually displaced S1 state of DPB in cyclohexane
 -------------------------------------------------
 Symbolic Z-matrix:
 Charge =  0 Multiplicity = 1

 SCF Done:  E(RCAM-B3LYP) =  -617.930704100     A.U. after   12 cycles
 SCF Done:  E(RCAM-B3LYP) =  -617.943805540     A.U. after   12 cycles
 SCF Done:  E(RCAM-B3LYP) =  -617.945148234     A.U. after   10 cycles
 SCF Done:  E(RCAM-B3LYP) =  -617.945202700     A.U. after    9 cycles
 SCF Done:  E(RCAM-B3LYP) =  -617.945204695     A.U. after    8 cycles
 SCF Done:  E(RCAM-B3LYP) =  -617.945204929     A.U. after    7 cycles
 SCF Done:  E(RCAM-B3LYP) =  -617.945205015     A.U. after    6 cycles
 Optimization completed.
    -- Stationary point found.
 Normal termination of Gaussian 16 at Thu Mar  7 12:44:36 2024.

 --------------------------------------------------------------------
 #P Geom=AllCheck Guess=TCheck SCRF=Check GenChk RCAM-B3LYP/TZVP Freq
 --------------------------------------------------------------------

 Structure from the checkpoint file:  "DPB_manualdisplacement.chk"
 -------------------------------------------------
 Manually displaced S1 state of DPB in cyclohexane
 -------------------------------------------------
 Charge =  0 Multiplicity = 1

                         Standard orientation:
 ---------------------------------------------------------------------
 Center     Atomic      Atomic             Coordinates (Angstroms)
 Number     Number       Type             X           Y           Z
 ---------------------------------------------------------------------
      1          6           0       -4.102086    1.278482    0.046359
      2          6           0       -3.153064    0.256159   -0.002053
      3          6           0       -3.613409   -1.062572   -0.049888
      4          6           0       -4.966871   -1.341854   -0.045707
      5          6           0       -5.897733   -0.312794    0.004854
      6          6           0       -5.458536    0.999960    0.050515
      7          1           0       -3.765959    2.307955    0.082406
      8          1           0       -2.908008   -1.881770   -0.093431
      9          1           0       -5.300937   -2.371007   -0.083645
     10          1           0       -6.956862   -0.535429    0.007418
     11          1           0       -6.173922    1.811568    0.089251
     12          6           0       -1.733178    0.611770   -0.001660
     13          1           0       -1.530097    1.679173    0.003108
     14          6           0       -0.687667   -0.221780   -0.002968
     15          1           0       -0.844159   -1.295934   -0.002484
     16          6           0        0.687670    0.221752   -0.002920
     17          1           0        0.844161    1.295907   -0.002203
     18          6           0        1.733184   -0.611794   -0.001783
     19          1           0        1.530110   -1.679199    0.002791
     20          6           0        3.153066   -0.256169   -0.002096
     21          6           0        4.102097   -1.278475    0.046481
     22          6           0        3.613399    1.062564   -0.050026
     23          6           0        5.458543   -0.999936    0.050731
     24          1           0        3.765980   -2.307950    0.082591
     25          6           0        4.966857    1.341864   -0.045750
     26          1           0        2.907991    1.881747   -0.093736
     27          6           0        5.897728    0.312819    0.004991
     28          1           0        6.173936   -1.811532    0.089601
     29          1           0        5.300913    2.371016   -0.083767
     30          1           0        6.956854    0.535468    0.007624
 ---------------------------------------------------------------------

 SCF Done:  E(RCAM-B3LYP) =  -617.945205015     A.U. after    1 cycles

 The electronic state is 1-A.
 Alpha  occ. eigenvalues --  -10.26220 -10.26220 -10.25431 -10.25418 -10.25345
 Alpha  occ. eigenvalues --  -10.25321 -10.25109 -10.25109 -10.25071 -10.25070
 Alpha  occ. eigenvalues --  -10.25037 -10.25036 -10.25012 -10.25012 -10.24951
 Alpha  occ. eigenvalues --  -10.24951  -0.95560  -0.95384  -0.90751  -0.87316
 Alpha  occ. eigenvalues --   -0.83847  -0.83511  -0.83390  -0.79379  -0.72134
 Alpha  occ. eigenvalues --   -0.69683  -0.68868  -0.67841  -0.64459  -0.63151
 Alpha  occ. eigenvalues --   -0.60447  -0.58645  -0.55604  -0.54273  -0.53207
 Alpha  occ. eigenvalues --   -0.52392  -0.50733  -0.50568  -0.49364  -0.49122
 Alpha  occ. eigenvalues --   -0.47746  -0.45883  -0.45621  -0.45412  -0.43132
 Alpha  occ. eigenvalues --   -0.42091  -0.41028  -0.40774  -0.40570  -0.40489
 Alpha  occ. eigenvalues --   -0.35850  -0.31693  -0.31685  -0.31177  -0.25269
 Alpha virt. eigenvalues --   -0.02905   0.02495   0.03166   0.03516   0.08426
 Alpha virt. eigenvalues --    0.08751   0.09351   0.09405   0.11292   0.11603
 Alpha virt. eigenvalues --    0.11867   0.12902   0.13274   0.14372   0.14717

 Mulliken charges:
               1
     1  C   -0.168035
     2  C   -0.005495
     3  C   -0.120838
     4  C   -0.104399
     5  C   -0.142661
     6  C   -0.106332
     7  H    0.131964
     8  H    0.139666
     9  H    0.131156
    10  H    0.135539
    11  H    0.133984
    12  C   -0.191301
    13  H    0.125649
    14  C   -0.095223
    15  H    0.136323
    16  C   -0.095227
    17  H    0.136322
    18  C   -0.191292
    19  H    0.125649
    20  C   -0.005480
    21  C   -0.168035
    22  C   -0.120840
    23  C   -0.106334
    24  H    0.131965
    25  C   -0.104407
    26  H    0.139664
    27  C   -0.142663
    28  H    0.133984
    29  H    0.131157
    30  H    0.135539
 Sum of Mulliken charges =  -0.00000

 Dipole moment (field-independent basis, Debye):
    X=             -0.0000    Y=             -0.0000    Z=              0.0029  Tot=              0.0029
 Quadrupole moment (field-independent basis, Debye-Ang):
   XX=            -82.4736   YY=            -82.9368   ZZ=           -104.7080
   XY=              0.0351   XZ=              0.0007   YZ=             -0.0003

  Exact polarizability:     452.876     -20.695     200.662       0.002      -0.002     100.425
 Approx polarizability:     373.591     -25.342     237.901       0.002      -0.002     122.033

                           ! Non-Optimized Parameters !
 Normal termination of Gaussian 16 at Thu Mar  7 12:47:42 2024.
 Gaussian 16:  ES64L-G16RevC.01  3-Jul-2019

 ----------------------------------------------------------------------
 #p CAM-B3LYP/TZVP Freq(ReadFC, FC, ReadFCHT) NoSymm SCRF(solvent=cyclo
 hexane) geom=check guess=read
 ----------------------------------------------------------------------

 ------------------------------------------------------------------
 FC analysis for simulated absorption spectra of DPB in cyclohexane
 ------------------------------------------------------------------
 Structure from the checkpoint file:  "DPB1.chk"
 Charge =  0 Multiplicity = 1

                      1                      2                      3
                      A                      A                      A
 Frequencies --     14.6230                35.8681                39.2569
 Red. masses --      3.6215                 2.7867                 5.1887
 Frc consts  --      0.0005                 0.0021                 0.0047
 IR Inten    --      0.0155                 0.0011                 0.3426

                      4                      5                      6
                      A                      A                      A
 Frequencies --     47.7597               137.7735               158.7296
 Red. masses --      4.7117                 5.0206                 3.8506
 Frc consts  --      0.0063                 0.0561                 0.0572
 IR Inten    --      0.5053                 0.0000                 0.3544

                      7                      8                      9
                      A                      A                      A
 Frequencies --    161.3739               229.2751               297.3926
 Red. masses --      2.2682                 5.6512                 2.6407
 Frc consts  --      0.0348                 0.1750                 0.1376
 IR Inten    --      0.0014                 0.0000                 0.5800

                     10                     11                     12
                      A                      A                      A
 Frequencies --    308.0996               328.3029               417.5169
 Red. masses --      4.1040                 4.2647                 2.8995
 Frc consts  --      0.2295                 0.2708                 0.2978
 IR Inten    --      2.5204                 0.0003                 0.0392

                     13                     14                     15
                      A                      A                      A
 Frequencies --    417.8992               466.0927               483.0340
 Red. masses --      2.9145                 5.5700                 4.0408
 Frc consts  --      0.2999                 0.7129                 0.5555
 IR Inten    --      0.0009                14.6592                 0.0003

                     16                     17                     18
                      A                      A                      A
 Frequencies --    506.5145               537.7371               629.8557
 Red. masses --      2.7011                 3.2667                 6.1554
 Frc consts  --      0.4083                 0.5566                 1.4388
 IR Inten    --     17.2422                 0.0001                 0.0000

                     19                     20                     21
                      A                      A                      A
 Frequencies --    643.5267               645.0836               657.3552
 Red. masses --      6.3555                 6.3469                 4.5590
 Frc consts  --      1.5507                 1.5561                 1.1607
 IR Inten    --      0.2735                 0.0000                11.2603

                     22                     23                     24
                      A                      A                      A
 Frequencies --    695.5124               699.5878               763.1086
 Red. masses --      2.4001                 2.1132                 1.4041
 Frc consts  --      0.6841                 0.6094                 0.4818
 IR Inten    --     42.4403                 0.0099               141.2299

                     25                     26                     27
                      A                      A                      A
 Frequencies --    776.6361               849.4934               864.5932
 Red. masses --      1.6618                 4.3760                 1.3993
 Frc consts  --      0.5906                 1.8606                 0.6163
 IR Inten    --      0.0010                 1.1644                 1.9543

                     28                     29                     30
                      A                      A                      A
 Frequencies --    868.6985               879.5077               883.8816
 Red. masses --      1.2644                 1.5375                 4.3322
 Frc consts  --      0.5622                 0.7007                 1.9941
 IR Inten    --      0.0004                 5.3032                 0.0001

                     31                     32                     33
                      A                      A                      A
 Frequencies --    925.1184               948.0016               951.4009
 Red. masses --      1.6631                 1.4800                 1.6939
 Frc consts  --      0.8386                 0.7836                 0.9034
 IR Inten    --      0.0000                 4.8412                 0.0038

                     34                     35                     36
                      A                      A                      A
 Frequencies --    981.5644              1000.5303              1000.6914
 Red. masses --      1.1372                 1.3599                 1.3604
 Frc consts  --      0.6455                 0.8021                 0.8026
 IR Inten    --      0.0003                 0.5232                 0.0307

                     37                     38                     39
                      A                      A                      A
 Frequencies --   1013.2007              1014.8095              1031.3685
 Red. masses --      1.2510                 1.2492                 5.6233
 Frc consts  --      0.7567                 0.7580                 3.5243
 IR Inten    --      3.5092                 0.0001                 1.1799

                     40                     41                     42
                      A                      A                      A
 Frequencies --   1031.4265              1035.3447              1067.5111
 Red. masses --      5.9590                 1.1046                 2.1759
 Frc consts  --      3.7351                 0.6976                 1.4610
 IR Inten    --      0.0106                90.5124                13.3198

                     43                     44                     45
                      A                      A                      A
 Frequencies --   1068.0677              1117.7016              1119.3139
 Red. masses --      2.1297                 1.6566                 1.5620
 Frc consts  --      1.4314                 1.2193                 1.1530
 IR Inten    --      0.0032                 0.0006                16.0608

                     46                     47                     48
                      A                      A                      A
 Frequencies --   1174.7190              1190.1244              1191.8361
 Red. masses --      2.3789                 1.1504                 1.1911
 Frc consts  --      1.9342                 0.9600                 0.9969
 IR Inten    --      0.0000                 0.5594                 0.0000

                     49                     50                     51
                      A                      A                      A
 Frequencies --   1216.9576              1217.4257              1242.2756
 Red. masses --      1.1313                 1.1349                 1.7088
 Frc consts  --      0.9872                 0.9910                 1.5537
 IR Inten    --      0.6795                 0.0010                 1.1848

                     52                     53                     54
                      A                      A                      A
 Frequencies --   1262.3643              1262.8171              1320.2527
 Red. masses --      1.9890                 2.1804                 3.8983
 Frc consts  --      1.8674                 2.0486                 4.0035
 IR Inten    --      3.6682                 0.0135                 0.0000

                     55                     56                     57
                      A                      A                      A
 Frequencies --   1332.1195              1346.3505              1359.9893
 Red. masses --      3.1525                 1.5955                 1.4441
 Frc consts  --      3.2960                 1.7040                 1.5736
 IR Inten    --      7.8273                 0.0001                 1.2602

                     58                     59                     60
                      A                      A                      A
 Frequencies --   1369.4407              1379.9614              1397.3097
 Red. masses --      1.6003                 1.2872                 1.4373
 Frc consts  --      1.7683                 1.4443                 1.6534
 IR Inten    --      0.0000                 0.6855                 0.0000

                     61                     62                     63
                      A                      A                      A
 Frequencies --   1502.2807              1507.2823              1551.6750
 Red. masses --      2.2836                 2.2747                 2.2530
 Frc consts  --      3.0365                 3.0448                 3.1960
 IR Inten    --     16.4568                 0.0000                47.8125

                     64                     65                     66
                      A                      A                      A
 Frequencies --   1553.9885              1650.7398              1653.8205
 Red. masses --      2.3131                 5.5027                 5.4232
 Frc consts  --      3.2911                 8.8346                 8.7394
 IR Inten    --      0.0004                 3.0969                 0.0000

                     67                     68                     69
                      A                      A                      A
 Frequencies --   1677.3569              1679.4114              1712.3557
 Red. masses --      5.6053                 5.7377                 5.9130
 Frc consts  --      9.2918                 9.5346                10.2153
 IR Inten    --      0.0000                34.3791                 4.9649

                     70                     71                     72
                      A                      A                      A
 Frequencies --   1732.0700              3156.3090              3157.7858
 Red. masses --      5.2521                 1.0901                 1.0895
 Frc consts  --      9.2836                 6.3983                 6.4008
 IR Inten    --      0.0000                19.9181                 0.0032

                     73                     74                     75
                      A                      A                      A
 Frequencies --   3167.8972              3176.4147              3188.7718
 Red. masses --      1.0884                 1.0878                 1.0875
 Frc consts  --      6.4357                 6.4663                 6.5153
 IR Inten    --      0.0023                48.3207                12.0322

                     76                     77                     78
                      A                      A                      A
 Frequencies --   3188.7739              3195.6563              3195.7649
 Red. masses --      1.0875                 1.0878                 1.0878
 Frc consts  --      6.5154                 6.5451                 6.5456
 IR Inten    --      7.2259                 0.0007                 0.8034

                     79                     80                     81
                      A                      A                      A
 Frequencies --   3204.6836              3204.7041              3213.2960
 Red. masses --      1.0917                 1.0917                 1.0938
 Frc consts  --      6.6055                 6.6059                 6.6539
 IR Inten    --     20.5624                 0.9307                 1.3602

                     82                     83                     84
                      A                      A                      A
 Frequencies --   3213.4036              3220.8539              3220.9482
 Red. masses --      1.0937                 1.0983                 1.0983
 Frc consts  --      6.6540                 6.7127                 6.7132
 IR Inten    --     44.4591                34.5710                 0.1894

 - Thermochemistry -
 -------------------
 Temperature   298.150 Kelvin.  Pressure   1.00000 Atm.
 Atom     1 has atomic number  6 and mass  12.00000

 Molecular mass:   206.10955 amu.
 Principal axes and moments of inertia in atomic units:
                           1         2         3
     Eigenvalues --   690.61897********************
           X           -0.51590   0.77146   0.37242
           Y            0.82288   0.56714  -0.03493
           Z            0.23816  -0.28843   0.92741
 This molecule is an asymmetric top.
 Rotational symmetry number  1.
 Warning -- assumption of classical behavior for rotation
           may cause significant error
 Rotational temperatures (Kelvin)      0.12541     0.00700     0.00663
 Rotational constants (GHZ):           2.61322     0.14590     0.13819
 Zero-point vibrational energy     657589.2 (Joules/Mol)
                                  157.16759 (Kcal/Mol)
 Warning -- explicit consideration of  17 degrees of freedom as
           vibrations may cause significant error
 Vibrational temperatures:     21.04    51.61    56.48    68.72   198.23
          (Kelvin)            228.38   232.18   329.88   427.88   443.29
                              472.35   600.71   601.26   670.60   694.98
                              728.76   773.68   906.22   925.89   928.13
                              945.79  1000.69  1006.55  1097.94  1117.41
                             1222.23  1243.96  1249.86  1265.42  1271.71
                             1331.04  1363.96  1368.85  1412.25  1439.54
                             1439.77  1457.77  1460.08  1483.91  1483.99
                             1489.63  1535.91  1536.71  1608.12  1610.44
                             1690.16  1712.32  1714.79  1750.93  1751.60
                             1787.36  1816.26  1816.91  1899.55  1916.62
                             1937.10  1956.72  1970.32  1985.46  2010.42
                             2161.45  2168.64  2232.51  2235.84  2375.05
                             2379.48  2413.34  2416.30  2463.70  2492.06
                             4541.22  4543.35  4557.90  4570.15  4587.93
                             4587.93  4597.84  4597.99  4610.82  4610.85
                             4623.22  4623.37  4634.09  4634.23

 Zero-point correction=                           0.250462 (Hartree/Particle)
 Thermal correction to Energy=                    0.263906
 Thermal correction to Enthalpy=                  0.264850
 Thermal correction to Gibbs Free Energy=         0.207126
 Sum of electronic and zero-point Energies=           -617.694742
 Sum of electronic and thermal Energies=              -617.681299
 Sum of electronic and thermal Enthalpies=            -617.680355
 Sum of electronic and thermal Free Energies=         -617.738079

                     E (Thermal)             CV                S
                      KCal/Mol        Cal/Mol-Kelvin    Cal/Mol-Kelvin
 Total                  165.603             52.066            121.491
 Electronic               0.000              0.000              0.000
 Translational            0.889              2.981             41.874
 Rotational               0.889              2.981             33.078
 Vibrational            163.826             46.105             46.539
 Vibration     1          0.593              1.986              7.256
 Vibration     2          0.594              1.982              5.475
 Vibration     3          0.594              1.981              5.296
 Vibration     4          0.595              1.978              4.908
 Vibration     5          0.614              1.916              2.835
 Vibration     6          0.621              1.893              2.565
 Vibration     7          0.622              1.890              2.534
 Vibration     8          0.652              1.796              1.885
 Vibration     9          0.691              1.679              1.432
 Vibration    10          0.698              1.658              1.373
 Vibration    11          0.712              1.619              1.268
 Vibration    12          0.781              1.432              0.900
 Vibration    13          0.781              1.431              0.899
 Vibration    14          0.823              1.325              0.749
 Vibration    15          0.839              1.288              0.702
 Vibration    16          0.862              1.236              0.642
 Vibration    17          0.893              1.167              0.570

 Error termination via Lnk1e in /apps/gaussian/g16-c01-avx2/g16/l718.exe at Thu Mar  7 12:47:43 2024.
