 Gaussian 16, Revision C.01,

 ----------------------------------------------------------------------
 #p CAM-B3LYP/TZVP SCRF(solvent=cyclohexane) geom=connectivity Opt Freq
 ----------------------------------------------------------------------

 Ground state calculation for DPB molecule, later to be used for excite
 d state and FC-HT analysis.
 ----------------------------------------------------------------------
 Symbolic Z-matrix:
 Charge =  0 Multiplicity = 1

 SCF Done:  E(RCAM-B3LYP) =  -620.320256305     A.U. after   12 cycles
 SCF Done:  E(RCAM-B3LYP) =  -620.360429586     A.U. after   11 cycles
 SCF Done:  E(RCAM-B3LYP) =  -620.367456748     A.U. after   11 cycles
 SCF Done:  E(RCAM-B3LYP) =  -620.368125058     A.U. after   10 cycles
 SCF Done:  E(RCAM-B3LYP) =  -620.368330319     A.U. after   10 cycles
 SCF Done:  E(RCAM-B3LYP) =  -620.368360775     A.U. after   10 cycles
 SCF Done:  E(RCAM-B3LYP) =  -620.368500078     A.U. after   10 cycles
 SCF Done:  E(RCAM-B3LYP) =  -620.367023310     A.U. after   12 cycles
 SCF Done:  E(RCAM-B3LYP) =  -620.370518182     A.U. after   11 cycles
 SCF Done:  E(RCAM-B3LYP) =  -620.339792091     A.U. after   13 cycles
 Optimization completed.
    -- Stationary point found.
 Normal termination of Gaussian 16 at Mon Mar  4 14:16:14 2024.

 --------------------------------------------------------------------
 #P Geom=AllCheck Guess=TCheck SCRF=Check GenChk RCAM-B3LYP/TZVP Freq
 --------------------------------------------------------------------

 ----------------------------------------------------------------------
 Ground state calculation for DPB molecule, later to be used for excite
 d state and FC-HT analysis.
 ----------------------------------------------------------------------
 Charge =  0 Multiplicity = 1

 Optimization completed.
 Normal termination of Gaussian 16 at Mon Mar  4 14:20:46 2024.

 ----------------------------------------------------------------------
 #p CAM-B3LYP/TZVP TD=(nstates=2, Root=1) SCRF(solvent=cyclohexane) geo
 m=check density=current opt freq=savenormalmodes
 ----------------------------------------------------------------------

 Calculating the vertical first excited state for DPB in cyclohexane an
 d optimizing the structure, analyzing the frequency.
 ----------------------------------------------------------------------
 Structure from the checkpoint file:  "DPB2.chk"
 Charge =  0 Multiplicity = 1

 SCF Done:  E(RCAM-B3LYP) =  -620.386670694     A.U. after   12 cycles
 Total Energy, E(TD-HF/TD-DFT) =  -620.185211094
 SCF Done:  E(RCAM-B3LYP) =  -620.383940113     A.U. after    9 cycles
 Total Energy, E(TD-HF/TD-DFT) =  -620.187658456
 SCF Done:  E(RCAM-B3LYP) =  -620.383040114     A.U. after    9 cycles
 Total Energy, E(TD-HF/TD-DFT) =  -620.189177894
 SCF Done:  E(RCAM-B3LYP) =  -620.288205936     A.U. after   12 cycles
 Total Energy, E(TD-HF/TD-DFT) =  -620.120086550
 SCF Done:  E(RCAM-B3LYP) =  -620.380944075     A.U. after    9 cycles
 Total Energy, E(TD-HF/TD-DFT) =  -620.190131421
 SCF Done:  E(RCAM-B3LYP) =  -620.381502799     A.U. after    8 cycles
 Total Energy, E(TD-HF/TD-DFT) =  -620.190171384
 SCF Done:  E(RCAM-B3LYP) =  -620.381628811     A.U. after    7 cycles
 Total Energy, E(TD-HF/TD-DFT) =  -620.190174098
 SCF Done:  E(RCAM-B3LYP) =  -620.381633517     A.U. after    7 cycles
 Total Energy, E(TD-HF/TD-DFT) =  -620.190174660
 SCF Done:  E(RCAM-B3LYP) =  -620.381610167     A.U. after    7 cycles
 Total Energy, E(TD-HF/TD-DFT) =  -620.190175117
    -- Stationary point found.
 Normal termination of Gaussian 16 at Mon Mar  4 14:59:02 2024.

 ----------------------------------------------------------------------
 #P Geom=AllCheck Guess=TCheck SCRF=Check GenChk RCAM-B3LYP TD(FC,Read)
 /TZVP Freq
 ----------------------------------------------------------------------

 ----------------------------------------------------------------------
 Calculating the vertical first excited state for DPB in cyclohexane an
 d optimizing the structure, analyzing the frequency.
 ----------------------------------------------------------------------
 Charge =  0 Multiplicity = 1

                         Standard orientation:
 ---------------------------------------------------------------------
 Center     Atomic      Atomic             Coordinates (Angstroms)
 Number     Number       Type             X           Y           Z
 ---------------------------------------------------------------------
      1          6           0        5.800785    0.000044   -0.449865
      2          6           0        5.144275    1.228989   -0.208242
      3          6           0        3.817128    1.227440    0.283344
      4          6           0        3.139332   -0.000041    0.521113
      5          6           0        3.817189   -1.227478    0.283293
      6          6           0        5.144336   -1.228944   -0.208293
      7          1           0        6.815259    0.000077   -0.824688
      8          1           0        5.655372    2.161865   -0.397555
      9          1           0        3.307073    2.160758    0.479913
     10          1           0        3.307178   -2.160828    0.479822
     11          1           0        5.655478   -2.161787   -0.397644
     12          6           0        1.715269   -0.000083    0.952375
     13          1           0        1.518039   -0.881387    1.569463
     14          1           0        1.518039    0.881109    1.569625
     15          6           0        0.727205    0.000029   -0.230056
     16          1           0        0.919321   -0.875957   -0.855132
     17          1           0        0.919318    0.876135   -0.854967
     18          6           0       -0.725122   -0.000017    0.226818
     19          1           0       -0.913343   -0.875211    0.855641
     20          1           0       -0.913349    0.875060    0.855803
     21          6           0       -1.712831    0.000089   -0.942446
     22          1           0       -1.526178   -0.876314   -1.568060
     23          1           0       -1.526186    0.876609   -1.567896
     24          6           0       -3.149737    0.000042   -0.492652
     25          6           0       -3.824923   -1.194126   -0.261659
     26          6           0       -3.824983    1.194162   -0.261591
     27          6           0       -5.135393   -1.197336    0.189621
     28          1           0       -3.318004   -2.135111   -0.443060
     29          6           0       -5.135454    1.197279    0.189689
     30          1           0       -3.318112    2.135182   -0.442938
     31          6           0       -5.795676   -0.000051    0.417794
     32          1           0       -5.643999   -2.138086    0.359454
     33          1           0       -5.644108    2.137994    0.359577
     34          1           0       -6.820191   -0.000088    0.767187
 ---------------------------------------------------------------------

 SCF Done:  E(RCAM-B3LYP) =  -620.381610167     A.U. after    1 cycles

 Excitation energies and oscillator strengths:

 Excited State   1:      Singlet-A      5.2092 eV  238.01 nm  f=0.0051  <S**2>=0.000
      55 -> 59        -0.41098
      55 -> 61        -0.13609
      56 -> 58         0.22872
      57 -> 58        -0.50519
 This state for optimization and/or second-order correction.
 Total Energy, E(TD-HF/TD-DFT) =  -620.190175110
 Copying the excited state density for this state as the 1-particle RhoCI density.

 Excited State   2:      Singlet-A      5.4826 eV  226.14 nm  f=0.0028  <S**2>=0.000
      54 -> 59         0.16015
      54 -> 61        -0.41829
      56 -> 60        -0.47899
      57 -> 60        -0.25235

 The electronic state is 1-A.
 Alpha  occ. eigenvalues --  -10.26067 -10.25475 -10.25473 -10.25345 -10.25218
 Alpha  occ. eigenvalues --  -10.25216 -10.25168 -10.24667 -10.24661 -10.24447
 Alpha  occ. eigenvalues --  -10.24409 -10.24406 -10.24333 -10.24318 -10.23997
 Alpha  occ. eigenvalues --  -10.23944  -0.94891  -0.93716  -0.89431  -0.86423
 Alpha  occ. eigenvalues --   -0.82946  -0.82712  -0.82409  -0.78070  -0.72584
 Alpha  occ. eigenvalues --   -0.68408  -0.68300  -0.67348  -0.65385  -0.64919
 Alpha  occ. eigenvalues --   -0.58831  -0.58112  -0.55737  -0.53581  -0.53363
 Alpha  occ. eigenvalues --   -0.52600  -0.51169  -0.49802  -0.49054  -0.48979
 Alpha  occ. eigenvalues --   -0.48917  -0.46556  -0.46448  -0.45247  -0.42977
 Alpha  occ. eigenvalues --   -0.42421  -0.42370  -0.40844  -0.40733  -0.40288
 Alpha  occ. eigenvalues --   -0.39883  -0.38966  -0.38562  -0.31168  -0.30839
 Alpha  occ. eigenvalues --   -0.30297  -0.29458
 Alpha virt. eigenvalues --    0.02690   0.02927   0.03426   0.03707   0.07120
 Alpha virt. eigenvalues --    0.09105   0.09875   0.10245   0.10586   0.11878
 Alpha virt. eigenvalues --    0.12161   0.13515   0.14036   0.14467   0.14735

 Mulliken charges:
               1
     1  C   -0.140601
     2  C   -0.140250
     3  C   -0.182067
     4  C    0.073999
     5  C   -0.182060
     6  C   -0.140254
     7  H    0.146902
     8  H    0.142732
     9  H    0.143118
    10  H    0.143117
    11  H    0.142731
    12  C   -0.338703
    13  H    0.148499
    14  H    0.148500
    15  C   -0.232654
    16  H    0.130461
    17  H    0.130465
    18  C   -0.238244
    19  H    0.128601
    20  H    0.128598
    21  C   -0.347841
    22  H    0.149730
    23  H    0.149727
    24  C    0.092391
    25  C   -0.178889
    26  C   -0.178885
    27  C   -0.103169
    28  H    0.132568
    29  C   -0.103173
    30  H    0.132567
    31  C   -0.156768
    32  H    0.132142
    33  H    0.132142
    34  H    0.134567
 Sum of Mulliken charges =  -0.00000

 Dipole moment (field-independent basis, Debye):
    X=             -0.3593    Y=             -0.0000    Z=             -0.0500  Tot=              0.3627
 Quadrupole moment (field-independent basis, Debye-Ang):
   XX=            -98.2011   YY=            -90.0560   ZZ=           -104.1555
   XY=              0.0001   XZ=             -4.9481   YZ=              0.0003

  Exact polarizability:     277.278       0.000     204.328     -28.060       0.001     133.425
 Approx polarizability:     241.548       0.000     244.103     -32.025       0.002     155.064

 Optimization completed.
    -- Stationary point found.
 Normal termination of Gaussian 16 at Mon Mar  4 15:12:46 2024.

 ----------------------------------------------------------------------
 #p CAM-B3LYP/TZVP Freq(ReadFC, FC, ReadFCHT) NoSymm SCRF(solvent=cyclo
 hexane) geom=check guess=read
 ----------------------------------------------------------------------

 ------------------------------------------------------------------
 FC analysis for simulated absorption spectra of DPB in cyclohexane
 ------------------------------------------------------------------
 Structure from the checkpoint file:  "DPB1.chk"
 Charge =  0 Multiplicity = 1

 Normal termination of Gaussian 16 at Mon Mar  4 15:13:04 2024.
 Gaussian 16:  ES64L-G16RevC.01  3-Jul-2019

 ----------------------------------------------------------------------
 #p CAM-B3LYP/TZVP Freq(ReadFC, FC, ReadFCHT, Emission) NoSymm SCRF(sol
 vent=cyclohexane) geom=check guess=read
 ----------------------------------------------------------------------

 ------------------------------------------------------------------
 FC analysis for simulated absorption spectra of DPB in cyclohexane
 ------------------------------------------------------------------
 Structure from the checkpoint file:  "DPB1.chk"
 Charge =  0 Multiplicity = 1

                      1                      2                      3
                      A                      A                      A
 Frequencies --     17.1482                20.5245                31.7681
 Red. masses --      3.6241                 4.1028                 3.0396
 Frc consts  --      0.0006                 0.0010                 0.0018
 IR Inten    --      0.0000                 0.0240                 0.0000

                      4                      5                      6
                      A                      A                      A
 Frequencies --     41.6500                82.8489               109.9259
 Red. masses --      4.4990                 5.1258                 2.4170
 Frc consts  --      0.0046                 0.0207                 0.0172
 IR Inten    --      0.0105                 0.0000                 0.0956

                      7                      8                      9
                      A                      A                      A
 Frequencies --    118.9876               198.4245               209.9692
 Red. masses --      1.8621                 4.1614                 5.0182
 Frc consts  --      0.0155                 0.0965                 0.1303
 IR Inten    --      0.0000                 2.9113                 0.0000

                     10                     11                     12
                      A                      A                      A
 Frequencies --    346.9842               347.4724               355.4513
 Red. masses --      3.6231                 2.2709                 3.8289
 Frc consts  --      0.2570                 0.1615                 0.2850
 IR Inten    --      0.0000                 0.3140                 0.0046

                     13                     14                     15
                      A                      A                      A
 Frequencies --    355.8116               420.5431               420.5842
 Red. masses --      2.3455                 2.9116                 2.9115
 Frc consts  --      0.1750                 0.3034                 0.3034
 IR Inten    --      0.0000                 0.0001                 0.0000

                     16                     17                     18
                      A                      A                      A
 Frequencies --    511.7032               531.5247               597.2727
 Red. masses --      3.5576                 2.9776                 5.2436
 Frc consts  --      0.5488                 0.4956                 1.1021
 IR Inten    --     20.2696                 0.0000                 0.0000

                     19                     20                     21
                      A                      A                      A
 Frequencies --    617.2734               645.7358               645.7769
 Red. masses --      3.8869                 6.3238                 6.3275
 Frc consts  --      0.8726                 1.5536                 1.5547
 IR Inten    --     15.5502                 0.0000                 0.1305

                     22                     23                     24
                      A                      A                      A
 Frequencies --    715.4838               716.8675               742.6655
 Red. masses --      1.9469                 1.8229                 1.0768
 Frc consts  --      0.5872                 0.5519                 0.3499
 IR Inten    --      0.0000                94.1071                 2.2332

                     25                     26                     27
                      A                      A                      A
 Frequencies --    775.8620               776.9953               791.4864
 Red. masses --      1.7441                 1.9934                 1.2129
 Frc consts  --      0.6186                 0.7091                 0.4477
 IR Inten    --      0.0000                81.3241                 0.0000

                     28                     29                     30
                      A                      A                      A
 Frequencies --    841.8518               843.1596               874.6295
 Red. masses --      3.5385                 4.2394                 1.2508
 Frc consts  --      1.4776                 1.7757                 0.5637
 IR Inten    --      4.7071                 0.0000                 0.0007

                     31                     32                     33
                      A                      A                      A
 Frequencies --    875.0717               918.9904               942.6058
 Red. masses --      1.2495                 1.3783                 1.4227
 Frc consts  --      0.5637                 0.6858                 0.7448
 IR Inten    --      0.0000                 0.1158                 0.0000

                     34                     35                     36
                      A                      A                      A
 Frequencies --    947.0571              1001.0664              1001.1209
 Red. masses --      1.4708                 1.3661                 1.3658
 Frc consts  --      0.7773                 0.8066                 0.8065
 IR Inten    --      4.6012                 0.0000                 0.0420

                     37                     38                     39
                      A                      A                      A
 Frequencies --   1016.2390              1016.4420              1031.0349
 Red. masses --      1.2782                 1.2628                 3.8767
 Frc consts  --      0.7777                 0.7687                 2.4281
 IR Inten    --      0.1740                 0.0000                 1.2857

                     40                     41                     42
                      A                      A                      A
 Frequencies --   1034.6257              1035.4326              1067.1941
 Red. masses --      6.2288                 5.5957                 2.2052
 Frc consts  --      3.9285                 3.5347                 1.4797
 IR Inten    --      0.0000                 0.0260                 0.0000

                     43                     44                     45
                      A                      A                      A
 Frequencies --   1067.9153              1069.0365              1075.1749
 Red. masses --      2.1185                 1.6248                 2.2995
 Frc consts  --      1.4235                 1.0940                 1.5662
 IR Inten    --     14.8143                 0.0000                 0.0000

                     46                     47                     48
                      A                      A                      A
 Frequencies --   1088.1412              1103.0312              1131.0156
 Red. masses --      5.0007                 1.4654                 1.4481
 Frc consts  --      3.4886                 1.0504                 1.0914
 IR Inten    --      0.0000                12.0028                 0.0000

                     49                     50                     51
                      A                      A                      A
 Frequencies --   1154.4900              1188.9639              1189.8718
 Red. masses --      1.2062                 1.1498                 1.1295
 Frc consts  --      0.9472                 0.9577                 0.9422
 IR Inten    --      7.6435                 0.0000                 0.0018

                     52                     53                     54
                      A                      A                      A
 Frequencies --   1213.9315              1214.0306              1245.4804
 Red. masses --      1.1265                 1.1264                 2.2164
 Frc consts  --      0.9781                 0.9782                 2.0257
 IR Inten    --      0.3571                 0.0000                 0.2111

                     55                     56                     57
                      A                      A                      A
 Frequencies --   1246.3369              1269.0018              1271.2492
 Red. masses --      2.4335                 1.3800                 1.5866
 Frc consts  --      2.2271                 1.3093                 1.5107
 IR Inten    --      0.0000                 4.3869                 0.0000

                     58                     59                     60
                      A                      A                      A
 Frequencies --   1318.5868              1337.7301              1340.3596
 Red. masses --      2.0545                 2.9676                 1.1001
 Frc consts  --      2.1046                 3.1289                 1.1645
 IR Inten    --      0.2547                 0.0000                 0.0000

                     61                     62                     63
                      A                      A                      A
 Frequencies --   1345.0766              1349.0096              1378.1161
 Red. masses --      1.7775                 1.4928                 1.2694
 Frc consts  --      1.8948                 1.6006                 1.4204
 IR Inten    --      0.0276                 0.0000                 0.0000

                     64                     65                     66
                      A                      A                      A
 Frequencies --   1379.3718              1396.0488              1418.0381
 Red. masses --      1.2521                 1.5278                 1.6536
 Frc consts  --      1.4037                 1.7544                 1.9591
 IR Inten    --      0.1711                 1.5795                 0.0000

                     67                     68                     69
                      A                      A                      A
 Frequencies --   1494.3563              1496.8303              1508.2086
 Red. masses --      1.0825                 1.0956                 2.2371
 Frc consts  --      1.4243                 1.4463                 2.9983
 IR Inten    --      0.0000                 0.6700                 0.0024

                     70                     71                     72
                      A                      A                      A
 Frequencies --   1508.2324              1509.3836              1521.2839
 Red. masses --      2.2324                 1.1043                 1.1029
 Frc consts  --      2.9920                 1.4823                 1.5038
 IR Inten    --     12.3809                 0.0000                14.3380

                     73                     74                     75
                      A                      A                      A
 Frequencies --   1553.0937              1553.3556              1661.1882
 Red. masses --      2.3433                 2.3463                 5.7358
 Frc consts  --      3.3302                 3.3356                 9.3257
 IR Inten    --     40.4785                 0.0000                 0.0003

                     76                     77                     78
                      A                      A                      A
 Frequencies --   1661.2167              1683.4355              1683.9853
 Red. masses --      5.7284                 5.8916                 5.8883
 Frc consts  --      9.3140                 9.8373                 9.8382
 IR Inten    --      3.1100                24.8864                 0.0000

                     79                     80                     81
                      A                      A                      A
 Frequencies --   3037.8201              3041.8775              3053.0752
 Red. masses --      1.0592                 1.0594                 1.0602
 Frc consts  --      5.7591                 5.7754                 5.8223
 IR Inten    --      0.0000                 8.8847                 0.0002

                     82                     83                     84
                      A                      A                      A
 Frequencies --   3056.0263              3062.9716              3076.6228
 Red. masses --      1.0599                 1.1020                 1.1043
 Frc consts  --      5.8320                 6.0916                 6.1589
 IR Inten    --    111.7878                 0.0000                 0.9693

                     85                     86                     87
                      A                      A                      A
 Frequencies --   3094.5740              3102.5927              3181.8562
 Red. masses --      1.1060                 1.1058                 1.0875
 Frc consts  --      6.2405                 6.2716                 6.4872
 IR Inten    --      0.0000                89.5393                20.5815

                     88                     89                     90
                      A                      A                      A
 Frequencies --   3181.8729              3182.6051              3182.6465
 Red. masses --      1.0875                 1.0888                 1.0888
 Frc consts  --      6.4872                 6.4976                 6.4978
 IR Inten    --      0.0074                 0.0010                10.5973

                     91                     92                     93
                      A                      A                      A
 Frequencies --   3196.0914              3196.1047              3204.2388
 Red. masses --      1.0903                 1.0903                 1.0943
 Frc consts  --      6.5620                 6.5621                 6.6197
 IR Inten    --      8.8871                 0.0001                 0.0041

                     94                     95                     96
                      A                      A                      A
 Frequencies --   3204.2611              3216.5218              3216.5616
 Red. masses --      1.0943                 1.0984                 1.0984
 Frc consts  --      6.6198                 6.6958                 6.6959
 IR Inten    --     57.4118                30.6169                 0.0003

 - Thermochemistry -
 -------------------
 Temperature   298.150 Kelvin.  Pressure   1.00000 Atm.
 Atom     1 has atomic number  6 and mass  12.00000

 Molecular mass:   210.14085 amu.
 Principal axes and moments of inertia in atomic units:
                           1         2         3
     Eigenvalues --   832.23695********************
           X            0.33838  -0.39984   0.85184
           Y            0.92667   0.29900  -0.22776
           Z           -0.16363   0.86644   0.47170
 This molecule is an asymmetric top.
 Rotational symmetry number  1.
 Warning -- assumption of classical behavior for rotation
           may cause significant error
 Rotational temperatures (Kelvin)      0.10407     0.00707     0.00681
 Rotational constants (GHZ):           2.16854     0.14724     0.14197
 Zero-point vibrational energy     781796.5 (Joules/Mol)
                                  186.85384 (Kcal/Mol)
 Warning -- explicit consideration of  19 degrees of freedom as
           vibrations may cause significant error
 Vibrational temperatures:     24.67    29.53    45.71    59.93   119.20
          (Kelvin)            158.16   171.20   285.49   302.10   499.23
                              499.94   511.42   511.93   605.07   605.13
                              736.23   764.75   859.34   888.12   929.07
                              929.13  1029.42  1031.41  1068.53  1116.29
                             1117.92  1138.77  1211.24  1213.12  1258.40
                             1259.03  1322.22  1356.20  1362.60  1440.31
                             1440.39  1462.14  1462.43  1483.43  1488.60
                             1489.76  1535.45  1536.49  1538.11  1546.94
                             1565.59  1587.02  1627.28  1661.05  1710.65
                             1711.96  1746.58  1746.72  1791.97  1793.20
                             1825.81  1829.04  1897.15  1924.70  1928.48
                             1935.27  1940.92  1982.80  1984.61  2008.60
                             2040.24  2150.05  2153.60  2169.98  2170.01
                             2171.67  2188.79  2234.56  2234.93  2390.08
                             2390.12  2422.09  2422.88  4370.75  4376.58
                             4392.69  4396.94  4406.93  4426.57  4452.40
                             4463.94  4577.98  4578.01  4579.06  4579.12
                             4598.46  4598.48  4610.18  4610.22  4627.86
                             4627.91

 Zero-point correction=                           0.297771 (Hartree/Particle)
 Thermal correction to Energy=                    0.312090
 Thermal correction to Enthalpy=                  0.313034
 Thermal correction to Gibbs Free Energy=         0.252463
 Sum of electronic and zero-point Energies=           -620.088900
 Sum of electronic and thermal Energies=              -620.074581
 Sum of electronic and thermal Enthalpies=            -620.073637
 Sum of electronic and thermal Free Energies=         -620.134207

                     E (Thermal)             CV                S
                      KCal/Mol        Cal/Mol-Kelvin    Cal/Mol-Kelvin
 Total                  195.839             54.932            127.482
 Electronic               0.000              0.000              0.000
 Translational            0.889              2.981             41.932
 Rotational               0.889              2.981             33.227
 Vibrational            194.062             48.970             52.323
 Vibration     1          0.593              1.986              6.940
 Vibration     2          0.593              1.986              6.583
 Vibration     3          0.594              1.983              5.716
 Vibration     4          0.594              1.981              5.179
 Vibration     5          0.600              1.961              3.822
 Vibration     6          0.606              1.941              3.270
 Vibration     7          0.609              1.933              3.117
 Vibration     8          0.637              1.842              2.148
 Vibration     9          0.642              1.826              2.044
 Vibration    10          0.725              1.581              1.180
 Vibration    11          0.725              1.580              1.178
 Vibration    12          0.731              1.564              1.142
 Vibration    13          0.731              1.563              1.140
 Vibration    14          0.783              1.426              0.890
 Vibration    15          0.783              1.425              0.890
 Vibration    16          0.867              1.224              0.630
 Vibration    17          0.886              1.180              0.584
 Vibration    18          0.955              1.038              0.454
 Vibration    19          0.977              0.995              0.421

 Normal termination of Gaussian 16 at Mon Mar  4 15:13:25 2024.
