 Gaussian 16, Revision C.01,

 --------------------------------------------
 #p CAM-B3LYP/TZVP geom=connectivity Opt Freq
 --------------------------------------------

 Ground state calculation for DPB molecule, later to be used for excite
 d state and FC-HT analysis.
 ----------------------------------------------------------------------
 Symbolic Z-matrix:
 Charge =  0 Multiplicity = 1

 SCF Done:  E(RCAM-B3LYP) =  -620.318031747     A.U. after   21 cycles
 SCF Done:  E(RCAM-B3LYP) =  -620.358355795     A.U. after   18 cycles
 SCF Done:  E(RCAM-B3LYP) =  -620.365452482     A.U. after   15 cycles
 SCF Done:  E(RCAM-B3LYP) =  -620.366133037     A.U. after   17 cycles
 SCF Done:  E(RCAM-B3LYP) =  -620.366348575     A.U. after   18 cycles
 SCF Done:  E(RCAM-B3LYP) =  -620.366382991     A.U. after   14 cycles
 SCF Done:  E(RCAM-B3LYP) =  -620.366916536     A.U. after   13 cycles
 SCF Done:  E(RCAM-B3LYP) =  -620.370080617     A.U. after   17 cycles
 SCF Done:  E(RCAM-B3LYP) =  -620.373252313     A.U. after   19 cycles
 SCF Done:  E(RCAM-B3LYP) =  -620.372579339     A.U. after   27 cycles
 SCF Done:  E(RCAM-B3LYP) =  -620.384668611     A.U. after    7 cycles
 SCF Done:  E(RCAM-B3LYP) =  -620.384668616     A.U. after    6 cycles
 Optimization completed.
    -- Stationary point found.
 Normal termination of Gaussian 16 at Mon Mar  4 14:32:10 2024.

 --------------------------------------------------------------------
 #P Geom=AllCheck Guess=TCheck SCRF=Check GenChk RCAM-B3LYP/TZVP Freq
 --------------------------------------------------------------------

 ----------------------------------------------------------------------
 Ground state calculation for DPB molecule, later to be used for excite
 d state and FC-HT analysis.
 ----------------------------------------------------------------------
 Charge =  0 Multiplicity = 1

 SCF Done:  E(RCAM-B3LYP) =  -620.384668616     A.U. after    1 cycles
 Optimization completed.
 Normal termination of Gaussian 16 at Mon Mar  4 14:40:20 2024.

 ----------------------------------------------------------------------
 #p CAM-B3LYP/TZVP TD=(nstates=2, Root=1) geom=check density=current op
 t freq=savenormalmodes
 ----------------------------------------------------------------------

 Calculating the vertical first excited state for DPB in its gaseous st
 ate and optimizing the structure, analyzing the frequency.
 ----------------------------------------------------------------------
 Structure from the checkpoint file:  "DPBg2.chk"
 Charge =  0 Multiplicity = 1

 SCF Done:  E(RCAM-B3LYP) =  -620.384668616     A.U. after   14 cycles
 Total Energy, E(TD-HF/TD-DFT) =  -620.182974885
 SCF Done:  E(RCAM-B3LYP) =  -620.381933002     A.U. after   14 cycles
 Total Energy, E(TD-HF/TD-DFT) =  -620.185433573
 SCF Done:  E(RCAM-B3LYP) =  -620.375978539     A.U. after   27 cycles
 Total Energy, E(TD-HF/TD-DFT) =  -620.186712597
 SCF Done:  E(RCAM-B3LYP) =  -620.378611993     A.U. after   15 cycles
 Total Energy, E(TD-HF/TD-DFT) =  -620.187571394
 SCF Done:  E(RCAM-B3LYP) =  -620.379563677     A.U. after    9 cycles
 Total Energy, E(TD-HF/TD-DFT) =  -620.187915315
 SCF Done:  E(RCAM-B3LYP) =  -620.379641048     A.U. after    7 cycles
 Total Energy, E(TD-HF/TD-DFT) =  -620.187917088
 Optimization completed.
    -- Stationary point found.
 Normal termination of Gaussian 16 at Mon Mar  4 15:14:55 2024.

 ----------------------------------------------------------------------
 #P Geom=AllCheck Guess=TCheck SCRF=Check GenChk RCAM-B3LYP TD(FC,Read)
 /TZVP Freq
 ----------------------------------------------------------------------

 ----------------------------------------------------------------------
 Calculating the vertical first excited state for DPB in its gaseous st
 ate and optimizing the structure, analyzing the frequency.
 ----------------------------------------------------------------------
 Charge =  0 Multiplicity = 1

                         Standard orientation:
 ---------------------------------------------------------------------
 Center     Atomic      Atomic             Coordinates (Angstroms)
 Number     Number       Type             X           Y           Z
 ---------------------------------------------------------------------
      1          6           0        5.796014   -0.000011   -0.417577
      2          6           0        5.136163    1.197000   -0.189387
      3          6           0        3.826070    1.193842    0.261681
      4          6           0        3.150959   -0.000001    0.492625
      5          6           0        3.826042   -1.193850    0.261625
      6          6           0        5.136134   -1.197018   -0.189442
      7          1           0        6.820508   -0.000016   -0.766943
      8          1           0        5.645084    2.137554   -0.359063
      9          1           0        3.319199    2.134758    0.443664
     10          1           0        3.319148   -2.134762    0.443565
     11          1           0        5.645034   -2.137575   -0.359162
     12          6           0        1.714080    0.000004    0.941904
     13          1           0        1.526716   -0.876089    1.567932
     14          1           0        1.526732    0.876082    1.567958
     15          6           0        0.726008    0.000029   -0.227366
     16          1           0        0.915470   -0.874628   -0.856577
     17          1           0        0.915462    0.874723   -0.856529
     18          6           0       -0.726596    0.000013    0.228658
     19          1           0       -0.919540   -0.875553    0.854205
     20          1           0       -0.919555    0.875557    0.854231
     21          6           0       -1.715626    0.000024   -0.952387
     22          1           0       -1.518890   -0.880664   -1.570860
     23          1           0       -1.518902    0.880730   -1.570837
     24          6           0       -3.139858    0.000008   -0.520641
     25          6           0       -3.818239   -1.226402   -0.282138
     26          6           0       -3.818281    1.226403   -0.282178
     27          6           0       -5.145731   -1.227986    0.207798
     28          1           0       -3.309167   -2.160371   -0.478138
     29          6           0       -5.145772    1.227958    0.207759
     30          1           0       -3.309241    2.160382   -0.478210
     31          6           0       -5.802787   -0.000021    0.450419
     32          1           0       -5.656338   -2.161424    0.395329
     33          1           0       -5.656411    2.161385    0.395261
     34          1           0       -6.816797   -0.000033    0.826055
 ---------------------------------------------------------------------

 SCF Done:  E(RCAM-B3LYP) =  -620.379641048     A.U. after    1 cycles

 Excitation energies and oscillator strengths:

 Excited State   1:      Singlet-A      5.2171 eV  237.65 nm  f=0.0028  <S**2>=0.000
      55 -> 59         0.41797
      55 -> 61         0.14116
      56 -> 58        -0.22236
      57 -> 58         0.50060
 This state for optimization and/or second-order correction.
 Total Energy, E(TD-HF/TD-DFT) =  -620.187917089
 Copying the excited state density for this state as the 1-particle RhoCI density.

 Excited State   2:      Singlet-A      5.4886 eV  225.89 nm  f=0.0016  <S**2>=0.000
      54 -> 59        -0.16491
      54 -> 61         0.42181
      56 -> 60        -0.47683
      57 -> 60        -0.24656

 The electronic state is 1-A.
 Alpha  occ. eigenvalues --  -10.26015 -10.25417 -10.25415 -10.25307 -10.25174
 Alpha  occ. eigenvalues --  -10.25172 -10.25113 -10.24626 -10.24620 -10.24471
 Alpha  occ. eigenvalues --  -10.24457 -10.24404 -10.24382 -10.24379 -10.24136
 Alpha  occ. eigenvalues --  -10.24088  -0.94859  -0.93672  -0.89513  -0.86446
 Alpha  occ. eigenvalues --   -0.82914  -0.82721  -0.82351  -0.78110  -0.72641
 Alpha  occ. eigenvalues --   -0.68404  -0.68275  -0.67413  -0.65455  -0.64945
 Alpha  occ. eigenvalues --   -0.58854  -0.58129  -0.55836  -0.53598  -0.53392
 Alpha  occ. eigenvalues --   -0.52644  -0.51187  -0.49851  -0.49039  -0.49031
 Alpha  occ. eigenvalues --   -0.48919  -0.46642  -0.46490  -0.45248  -0.42949
 Alpha  occ. eigenvalues --   -0.42445  -0.42374  -0.40866  -0.40748  -0.40374
 Alpha  occ. eigenvalues --   -0.39931  -0.39089  -0.38626  -0.31071  -0.30713
 Alpha  occ. eigenvalues --   -0.30218  -0.29385
 Alpha virt. eigenvalues --    0.02803   0.03021   0.03518   0.03787   0.06866
 Alpha virt. eigenvalues --    0.08870   0.09627   0.10027   0.10370   0.11616
 Alpha virt. eigenvalues --    0.12006   0.13275   0.13821   0.14323   0.14482

 Mulliken charges:
               1
     1  C   -0.147304
     2  C   -0.093220
     3  C   -0.171495
     4  C    0.099648
     5  C   -0.171496
     6  C   -0.093219
     7  H    0.126577
     8  H    0.124222
     9  H    0.124879
    10  H    0.124880
    11  H    0.124222
    12  C   -0.355840
    13  H    0.147168
    14  H    0.147166
    15  C   -0.233752
    16  H    0.126548
    17  H    0.126546
    18  C   -0.229369
    19  H    0.128554
    20  H    0.128553
    21  C   -0.345674
    22  H    0.145261
    23  H    0.145260
    24  C    0.075767
    25  C   -0.171508
    26  C   -0.171506
    27  C   -0.125717
    28  H    0.135309
    29  C   -0.125719
    30  H    0.135309
    31  C   -0.137916
    32  H    0.134846
    33  H    0.134846
    34  H    0.138172
 Sum of Mulliken charges =  -0.00000

 Dipole moment (field-independent basis, Debye):
    X=              0.3122    Y=              0.0000    Z=              0.0475  Tot=              0.3158
 Quadrupole moment (field-independent basis, Debye-Ang):
   XX=            -97.6179   YY=            -90.4346   ZZ=           -104.1086
   XY=              0.0000   XZ=             -4.7450   YZ=              0.0001

  Exact polarizability:     254.573       0.000     177.963     -23.943       0.000     119.206
 Approx polarizability:     241.582      -0.000     244.359     -32.223       0.000     154.659

                           ! Non-Optimized Parameters !
 Normal termination of Gaussian 16 at Mon Mar  4 15:34:32 2024.

 ----------------------------------------------------------------------
 #p CAM-B3LYP/TZVP Freq(ReadFC, FC, ReadFCHT) NoSymm geom=check guess=r
 ead
 ----------------------------------------------------------------------

 FC analysis for simulated absorption spectra of DPB in its gaseous sta
 te
 ----------------------------------------------------------------------
 Structure from the checkpoint file:  "DPBg1.chk"
 Charge =  0 Multiplicity = 1

 Normal termination of Gaussian 16 at Mon Mar  4 15:34:52 2024.
 Gaussian 16:  ES64L-G16RevC.01  3-Jul-2019

 ----------------------------------------------------------------------
 #p CAM-B3LYP/TZVP Freq(ReadFC, FC, ReadFCHT, Emission) NoSymm geom=che
 ck guess=read
 ----------------------------------------------------------------------

 ----------------------------------------------------------------------
 FC analysis for simulated emission spectra of DPB in its gaseous state
 ----------------------------------------------------------------------
 Structure from the checkpoint file:  "DPBg1.chk"
 Charge =  0 Multiplicity = 1

                      1                      2                      3
                      A                      A                      A
 Frequencies --     15.8864                22.5921                33.5580
 Red. masses --      3.6618                 4.0617                 3.0420
 Frc consts  --      0.0005                 0.0012                 0.0020
 IR Inten    --      0.0028                 0.0167                 0.0000

                      4                      5                      6
                      A                      A                      A
 Frequencies --     42.6057                83.3666               110.7118
 Red. masses --      4.5002                 5.1305                 2.4164
 Frc consts  --      0.0048                 0.0210                 0.0175
 IR Inten    --      0.0097                 0.0000                 0.0718

                      7                      8                      9
                      A                      A                      A
 Frequencies --    119.6369               198.7193               210.2532
 Red. masses --      1.8595                 4.1623                 5.0162
 Frc consts  --      0.0157                 0.0968                 0.1307
 IR Inten    --      0.0000                 2.4576                 0.0000

                     10                     11                     12
                      A                      A                      A
 Frequencies --    346.9247               347.0122               355.4298
 Red. masses --      3.6210                 2.2644                 2.3405
 Frc consts  --      0.2568                 0.1607                 0.1742
 IR Inten    --      0.0002                 0.1879                 0.0000

                     13                     14                     15
                      A                      A                      A
 Frequencies --    355.5821               420.3728               420.4173
 Red. masses --      3.8294                 2.9258                 2.9258
 Frc consts  --      0.2853                 0.3046                 0.3047
 IR Inten    --      0.0207                 0.0000                 0.0000

                     16                     17                     18
                      A                      A                      A
 Frequencies --    511.5961               531.3867               597.7196
 Red. masses --      3.5675                 2.9895                 5.2351
 Frc consts  --      0.5501                 0.4974                 1.1020
 IR Inten    --     17.2850                 0.0000                 0.0000

                     19                     20                     21
                      A                      A                      A
 Frequencies --    617.7520               646.5505               646.5989
 Red. masses --      3.8832                 6.3206                 6.3241
 Frc consts  --      0.8731                 1.5567                 1.5578
 IR Inten    --     12.8976                 0.0000                 0.0525

                     22                     23                     24
                      A                      A                      A
 Frequencies --    716.9911               718.2659               742.6928
 Red. masses --      1.9094                 1.7944                 1.0771
 Frc consts  --      0.5783                 0.5454                 0.3500
 IR Inten    --      0.0000                80.2378                 1.4840

                     25                     26                     27
                      A                      A                      A
 Frequencies --    776.6322               777.8195               791.0972
 Red. masses --      1.7575                 2.0074                 1.2134
 Frc consts  --      0.6246                 0.7155                 0.4474
 IR Inten    --      0.0000                66.9213                 0.0000

                     28                     29                     30
                      A                      A                      A
 Frequencies --    842.2659               843.7688               873.7139
 Red. masses --      3.5204                 4.2255                 1.2506
 Frc consts  --      1.4714                 1.7725                 0.5625
 IR Inten    --      3.8537                 0.0000                 0.0020

                     31                     32                     33
                      A                      A                      A
 Frequencies --    874.1804               918.8045               941.3496
 Red. masses --      1.2494                 1.3788                 1.4268
 Frc consts  --      0.5626                 0.6858                 0.7449
 IR Inten    --      0.0000                 0.1081                 0.0000

                     34                     35                     36
                      A                      A                      A
 Frequencies --    945.9458               995.9867               996.0483
 Red. masses --      1.4761                 1.3630                 1.3626
 Frc consts  --      0.7782                 0.7966                 0.7965
 IR Inten    --      3.5090                 0.0000                 0.0281

                     37                     38                     39
                      A                      A                      A
 Frequencies --   1014.2058              1014.4106              1031.4155
 Red. masses --      1.2817                 1.2666                 3.8075
 Frc consts  --      0.7768                 0.7679                 2.3864
 IR Inten    --      0.1534                 0.0000                 1.1954

                     40                     41                     42
                      A                      A                      A
 Frequencies --   1035.7119              1036.3377              1068.1536
 Red. masses --      6.2293                 5.7715                 2.2055
 Frc consts  --      3.9370                 3.6521                 1.4826
 IR Inten    --      0.0000                 0.0117                 0.0000

                     43                     44                     45
                      A                      A                      A
 Frequencies --   1068.8721              1069.1610              1075.3642
 Red. masses --      2.1141                 1.6205                 2.3014
 Frc consts  --      1.4231                 1.0914                 1.5680
 IR Inten    --     11.2008                 0.0000                 0.0000

                     46                     47                     48
                      A                      A                      A
 Frequencies --   1088.7570              1103.3875              1132.2175
 Red. masses --      4.9834                 1.4556                 1.4462
 Frc consts  --      3.4805                 1.0441                 1.0923
 IR Inten    --      0.0000                 8.7599                 0.0000

                     49                     50                     51
                      A                      A                      A
 Frequencies --   1154.4377              1190.9711              1191.8413
 Red. masses --      1.2091                 1.1540                 1.1338
 Frc consts  --      0.9494                 0.9644                 0.9489
 IR Inten    --      6.2022                 0.0000                 0.0034

                     52                     53                     54
                      A                      A                      A
 Frequencies --   1216.0191              1216.1668              1245.9458
 Red. masses --      1.1257                 1.1257                 2.1824
 Frc consts  --      0.9807                 0.9810                 1.9961
 IR Inten    --      0.2245                 0.0000                 0.1469

                     55                     56                     57
                      A                      A                      A
 Frequencies --   1246.8540              1268.8030              1271.9127
 Red. masses --      2.4317                 1.3964                 1.5770
 Frc consts  --      2.2274                 1.3245                 1.5031
 IR Inten    --      0.0000                 3.9637                 0.0000

                     58                     59                     60
                      A                      A                      A
 Frequencies --   1319.7342              1339.1005              1340.3531
 Red. masses --      2.0064                 2.8688                 1.1170
 Frc consts  --      2.0589                 3.0309                 1.1823
 IR Inten    --      0.2412                 0.0000                 0.0000

                     61                     62                     63
                      A                      A                      A
 Frequencies --   1346.0667              1349.2593              1377.6662
 Red. masses --      1.8102                 1.4982                 1.2706
 Frc consts  --      1.9325                 1.6069                 1.4209
 IR Inten    --      0.0455                 0.0000                 0.0000

                     64                     65                     66
                      A                      A                      A
 Frequencies --   1378.9933              1397.5766              1418.9497
 Red. masses --      1.2524                 1.5289                 1.6547
 Frc consts  --      1.4032                 1.7595                 1.9629
 IR Inten    --      0.2390                 1.3747                 0.0000

                     67                     68                     69
                      A                      A                      A
 Frequencies --   1498.4437              1499.0850              1509.3927
 Red. masses --      1.0813                 1.0950                 2.2446
 Frc consts  --      1.4305                 1.4498                 3.0130
 IR Inten    --      0.0000                 0.6801                 0.0000

                     70                     71                     72
                      A                      A                      A
 Frequencies --   1509.4195              1511.0374              1523.5151
 Red. masses --      2.2394                 1.1037                 1.1026
 Frc consts  --      3.0061                 1.4847                 1.5078
 IR Inten    --     10.8839                 0.0000                12.2472

                     73                     74                     75
                      A                      A                      A
 Frequencies --   1554.1809              1554.4754              1662.9391
 Red. masses --      2.3513                 2.3534                 5.7441
 Frc consts  --      3.3463                 3.3505                 9.3590
 IR Inten    --     34.3948                 0.0001                 0.0006

                     76                     77                     78
                      A                      A                      A
 Frequencies --   1662.9703              1685.4730              1686.0708
 Red. masses --      5.7358                 5.8839                 5.8780
 Frc consts  --      9.3457                 9.8482                 9.8454
 IR Inten    --      2.6766                21.4770                 0.0000

                     79                     80                     81
                      A                      A                      A
 Frequencies --   3038.0324              3041.8685              3052.3026
 Red. masses --      1.0593                 1.0594                 1.0602
 Frc consts  --      5.7604                 5.7754                 5.8195
 IR Inten    --      0.0000                 4.3916                 0.0000

                     82                     83                     84
                      A                      A                      A
 Frequencies --   3056.1442              3062.7181              3075.7981
 Red. masses --      1.0599                 1.1021                 1.1042
 Frc consts  --      5.8327                 6.0907                 6.1548
 IR Inten    --     92.1136                 0.0000                 0.3141

                     85                     86                     87
                      A                      A                      A
 Frequencies --   3093.4732              3102.7832              3181.1315
 Red. masses --      1.1060                 1.1057                 1.0874
 Frc consts  --      6.2359                 6.2720                 6.4834
 IR Inten    --      0.0000                66.4131                18.3700

                     88                     89                     90
                      A                      A                      A
 Frequencies --   3181.1578              3181.9269              3181.9760
 Red. masses --      1.0874                 1.0887                 1.0887
 Frc consts  --      6.4834                 6.4944                 6.4947
 IR Inten    --      0.0008                 0.0002                 8.9597

                     91                     92                     93
                      A                      A                      A
 Frequencies --   3195.9276              3195.9401              3204.3412
 Red. masses --      1.0902                 1.0902                 1.0942
 Frc consts  --      6.5609                 6.5610                 6.6198
 IR Inten    --      7.1380                 0.0001                 0.0001

                     94                     95                     96
                      A                      A                      A
 Frequencies --   3204.3658              3216.7973              3216.8448
 Red. masses --      1.0942                 1.0984                 1.0984
 Frc consts  --      6.6199                 6.6968                 6.6969
 IR Inten    --     47.7351                27.0479                 0.0000

 - Thermochemistry -
 -------------------
 Temperature   298.150 Kelvin.  Pressure   1.00000 Atm.
 Atom     1 has atomic number  6 and mass  12.00000

 Molecular mass:   210.14085 amu.
 Principal axes and moments of inertia in atomic units:
                           1         2         3
     Eigenvalues --   831.85267********************
           X            0.34037  -0.46357   0.81808
           Y            0.92572   0.31775  -0.20510
           Z           -0.16486   0.82713   0.53729
 This molecule is an asymmetric top.
 Rotational symmetry number  1.
 Warning -- assumption of classical behavior for rotation
           may cause significant error
 Rotational temperatures (Kelvin)      0.10412     0.00707     0.00681
 Rotational constants (GHZ):           2.16954     0.14724     0.14198
 Zero-point vibrational energy     781995.3 (Joules/Mol)
                                  186.90137 (Kcal/Mol)
 Warning -- explicit consideration of  19 degrees of freedom as
           vibrations may cause significant error
 Vibrational temperatures:     22.86    32.50    48.28    61.30   119.95
          (Kelvin)            159.29   172.13   285.91   302.51   499.15
                              499.27   511.38   511.60   604.82   604.89
                              736.07   764.55   859.99   888.81   930.24
                              930.31  1031.59  1033.42  1068.57  1117.40
                             1119.11  1138.21  1211.83  1214.00  1257.08
                             1257.75  1321.95  1354.39  1361.00  1433.00
                             1433.09  1459.22  1459.51  1483.98  1490.16
                             1491.06  1536.83  1537.87  1538.28  1547.21
                             1566.48  1587.53  1629.01  1660.98  1713.54
                             1714.79  1749.58  1749.79  1792.64  1793.94
                             1825.52  1830.00  1898.80  1926.67  1928.47
                             1936.69  1941.28  1982.15  1984.06  2010.80
                             2041.55  2155.93  2156.85  2171.68  2171.72
                             2174.05  2192.00  2236.12  2236.54  2392.60
                             2392.64  2425.02  2425.88  4371.05  4376.57
                             4391.58  4397.11  4406.57  4425.39  4450.82
                             4464.21  4576.94  4576.98  4578.08  4578.15
                             4598.23  4598.24  4610.33  4610.37  4628.25
                             4628.32

 Zero-point correction=                           0.297846 (Hartree/Particle)
 Thermal correction to Energy=                    0.312153
 Thermal correction to Enthalpy=                  0.313097
 Thermal correction to Gibbs Free Energy=         0.252638
 Sum of electronic and zero-point Energies=           -620.086822
 Sum of electronic and thermal Energies=              -620.072516
 Sum of electronic and thermal Enthalpies=            -620.071572
 Sum of electronic and thermal Free Energies=         -620.132030

                     E (Thermal)             CV                S
                      KCal/Mol        Cal/Mol-Kelvin    Cal/Mol-Kelvin
 Total                  195.879             54.919            127.246
 Electronic               0.000              0.000              0.000
 Translational            0.889              2.981             41.932
 Rotational               0.889              2.981             33.227
 Vibrational            194.101             48.957             52.088
 Vibration     1          0.593              1.986              7.092
 Vibration     2          0.593              1.985              6.392
 Vibration     3          0.594              1.983              5.607
 Vibration     4          0.595              1.980              5.134
 Vibration     5          0.600              1.961              3.810
 Vibration     6          0.607              1.941              3.256
 Vibration     7          0.609              1.933              3.106
 Vibration     8          0.637              1.842              2.145
 Vibration     9          0.642              1.825              2.041
 Vibration    10          0.725              1.582              1.180
 Vibration    11          0.725              1.581              1.180
 Vibration    12          0.731              1.564              1.142
 Vibration    13          0.731              1.564              1.141
 Vibration    14          0.783              1.426              0.891
 Vibration    15          0.783              1.426              0.891
 Vibration    16          0.867              1.224              0.630
 Vibration    17          0.886              1.181              0.584
 Vibration    18          0.956              1.037              0.454
 Vibration    19          0.978              0.994              0.420

 Normal termination of Gaussian 16 at Mon Mar  4 15:35:10 2024.
