 Gaussian 16, Revision C.01,

 --------------------------------------------
 #p CAM-B3LYP/TZVP geom=connectivity Opt Freq
 --------------------------------------------

 Ground state calculation for DPB molecule, later to be used for excite
 d state and FC-HT analysis.
 ----------------------------------------------------------------------
 Symbolic Z-matrix:
 Charge =  0 Multiplicity = 1

 SCF Done:  E(RCAM-B3LYP) =  -617.916062874     A.U. after   24 cycles
 SCF Done:  E(RCAM-B3LYP) =  -617.929113731     A.U. after   21 cycles
 SCF Done:  E(RCAM-B3LYP) =  -617.929926515     A.U. after   13 cycles
 SCF Done:  E(RCAM-B3LYP) =  -617.929954899     A.U. after   21 cycles
 SCF Done:  E(RCAM-B3LYP) =  -617.929975447     A.U. after   14 cycles
 SCF Done:  E(RCAM-B3LYP) =  -617.931037524     A.U. after   18 cycles
 SCF Done:  E(RCAM-B3LYP) =  -617.934824180     A.U. after   27 cycles
 SCF Done:  E(RCAM-B3LYP) =  -617.883505880     A.U. after   18 cycles
 SCF Done:  E(RCAM-B3LYP) =  -617.937674469     A.U. after   15 cycles
 SCF Done:  E(RCAM-B3LYP) =  -617.939275285     A.U. after   23 cycles
 SCF Done:  E(RCAM-B3LYP) =  -617.942679598     A.U. after   16 cycles
 SCF Done:  E(RCAM-B3LYP) =  -617.942680272     A.U. after   19 cycles
 SCF Done:  E(RCAM-B3LYP) =  -617.942680406     A.U. after    8 cycles
 Optimization completed.
    -- Stationary point found.
 Normal termination of Gaussian 16 at Mon Mar  4 16:26:44 2024.

 --------------------------------------------------------------------
 #P Geom=AllCheck Guess=TCheck SCRF=Check GenChk RCAM-B3LYP/TZVP Freq
 --------------------------------------------------------------------

 ----------------------------------------------------------------------
 Ground state calculation for DPB molecule, later to be used for excite
 d state and FC-HT analysis.
 ----------------------------------------------------------------------
 Charge =  0 Multiplicity = 1

 SCF Done:  E(RCAM-B3LYP) =  -617.942680406     A.U. after    1 cycles
 Optimization completed.
 Normal termination of Gaussian 16 at Mon Mar  4 16:29:02 2024.

 ----------------------------------------------------------------------
 #p CAM-B3LYP/TZVP TD=(nstates=2, Root=1) geom=check density=current op
 t freq=savenormalmodes
 ----------------------------------------------------------------------

 Calculating the vertical first excited state for DPB in its gaseous st
 ate and optimizing the structure, analyzing the frequency.
 ----------------------------------------------------------------------
 Structure from the checkpoint file:  "DPB2.chk"
 Charge =  0 Multiplicity = 1

 SCF Done:  E(RCAM-B3LYP) =  -617.942680406     A.U. after   13 cycles
 Total Energy, E(TD-HF/TD-DFT) =  -617.797916706
 SCF Done:  E(RCAM-B3LYP) =  -617.934253207     A.U. after   13 cycles
 Total Energy, E(TD-HF/TD-DFT) =  -617.810147871
 SCF Done:  E(RCAM-B3LYP) =  -617.930483568     A.U. after   12 cycles
 Total Energy, E(TD-HF/TD-DFT) =  -617.811042409
 SCF Done:  E(RCAM-B3LYP) =  -617.930286955     A.U. after    9 cycles
 Total Energy, E(TD-HF/TD-DFT) =  -617.811061580
 SCF Done:  E(RCAM-B3LYP) =  -617.930305660     A.U. after    7 cycles
 Total Energy, E(TD-HF/TD-DFT) =  -617.811062309
    -- Stationary point found.
 Normal termination of Gaussian 16 at Mon Mar  4 16:43:13 2024.

 ----------------------------------------------------------------------
 #P Geom=AllCheck Guess=TCheck SCRF=Check GenChk RCAM-B3LYP TD(FC,Read)
 /TZVP Freq
 ----------------------------------------------------------------------

 ----------------------------------------------------------------------
 Calculating the vertical first excited state for DPB in its gaseous st
 ate and optimizing the structure, analyzing the frequency.
 ----------------------------------------------------------------------
 Charge =  0 Multiplicity = 1

                         Standard orientation:
 ---------------------------------------------------------------------
 Center     Atomic      Atomic             Coordinates (Angstroms)
 Number     Number       Type             X           Y           Z
 ---------------------------------------------------------------------
      1          6           0       -4.118986    1.298819    0.000016
      2          6           0       -3.117403    0.291427    0.000002
      3          6           0       -3.561290   -1.060790   -0.000026
      4          6           0       -4.903515   -1.362863   -0.000032
      5          6           0       -5.862507   -0.354377   -0.000014
      6          6           0       -5.453769    0.981341    0.000009
      7          1           0       -3.809116    2.337188    0.000035
      8          1           0       -2.838306   -1.864954   -0.000047
      9          1           0       -5.216544   -2.399699   -0.000053
     10          1           0       -6.915759   -0.602787   -0.000018
     11          1           0       -6.194297    1.771251    0.000022
     12          6           0       -1.755594    0.658483    0.000016
     13          1           0       -1.538934    1.722805    0.000024
     14          6           0       -0.661954   -0.210456    0.000023
     15          1           0       -0.842800   -1.279898    0.000040
     16          6           0        0.661954    0.210452    0.000013
     17          1           0        0.842801    1.279894   -0.000007
     18          6           0        1.755594   -0.658486    0.000027
     19          1           0        1.538937   -1.722808    0.000050
     20          6           0        3.117403   -0.291427    0.000013
     21          6           0        4.118988   -1.298819    0.000021
     22          6           0        3.561288    1.060789   -0.000010
     23          6           0        5.453769   -0.981339    0.000001
     24          1           0        3.809118   -2.337188    0.000042
     25          6           0        4.903514    1.362864   -0.000030
     26          1           0        2.838305    1.864954   -0.000010
     27          6           0        5.862506    0.354381   -0.000026
     28          1           0        6.194300   -1.771247    0.000006
     29          1           0        5.216540    2.399702   -0.000048
     30          1           0        6.915759    0.602790   -0.000043
 ---------------------------------------------------------------------

 SCF Done:  E(RCAM-B3LYP) =  -617.930305660     A.U. after    1 cycles

 Excitation energies and oscillator strengths:

 Excited State   1:      Singlet-A      3.2448 eV  382.10 nm  f=1.5383  <S**2>=0.000
      55 -> 56         0.70266
 This state for optimization and/or second-order correction.
 Total Energy, E(TD-HF/TD-DFT) =  -617.811062323
 Copying the excited state density for this state as the 1-particle RhoCI density.

 Excited State   2:      Singlet-A      4.5895 eV  270.15 nm  f=0.0000  <S**2>=0.000
      52 -> 56        -0.31872
      53 -> 57        -0.11210
      54 -> 58         0.18512
      55 -> 57         0.51440
      55 -> 59        -0.25831

 The electronic state is 1-A.
 Alpha  occ. eigenvalues --  -10.26335 -10.26335 -10.25768 -10.25763 -10.25695
 Alpha  occ. eigenvalues --  -10.25645 -10.25247 -10.25247 -10.25201 -10.25201
 Alpha  occ. eigenvalues --  -10.25148 -10.25148 -10.25082 -10.25082 -10.25053
 Alpha  occ. eigenvalues --  -10.25053  -0.95318  -0.95108  -0.90651  -0.87343
 Alpha  occ. eigenvalues --   -0.83965  -0.83654  -0.83438  -0.78271  -0.73151
 Alpha  occ. eigenvalues --   -0.69643  -0.68654  -0.67683  -0.64555  -0.63158
 Alpha  occ. eigenvalues --   -0.60318  -0.58622  -0.55664  -0.54618  -0.53359
 Alpha  occ. eigenvalues --   -0.52572  -0.50392  -0.50274  -0.49575  -0.49313
 Alpha  occ. eigenvalues --   -0.47221  -0.45889  -0.45700  -0.45200  -0.43443
 Alpha  occ. eigenvalues --   -0.42650  -0.41981  -0.40406  -0.40360  -0.39977
 Alpha  occ. eigenvalues --   -0.35733  -0.31857  -0.31840  -0.30887  -0.23477
 Alpha virt. eigenvalues --   -0.04670   0.02402   0.03415   0.03682   0.08064
 Alpha virt. eigenvalues --    0.08635   0.09067   0.09141   0.11228   0.11241
 Alpha virt. eigenvalues --    0.11396   0.12557   0.13000   0.14065   0.14393

 Mulliken charges:
               1
     1  C   -0.163343
     2  C   -0.010914
     3  C   -0.135907
     4  C   -0.088635
     5  C   -0.134761
     6  C   -0.096015
     7  H    0.121144
     8  H    0.130107
     9  H    0.121385
    10  H    0.126565
    11  H    0.125525
    12  C   -0.149545
    13  H    0.118352
    14  C   -0.095641
    15  H    0.131683
    16  C   -0.095642
    17  H    0.131683
    18  C   -0.149544
    19  H    0.118352
    20  C   -0.010914
    21  C   -0.163344
    22  C   -0.135906
    23  C   -0.096014
    24  H    0.121144
    25  C   -0.088636
    26  H    0.130107
    27  C   -0.134761
    28  H    0.125525
    29  H    0.121385
    30  H    0.126565
 Sum of Mulliken charges =  -0.00000

 Dipole moment (field-independent basis, Debye):
    X=              0.0000    Y=             -0.0000    Z=              0.0000  Tot=              0.0000
 Quadrupole moment (field-independent basis, Debye-Ang):
   XX=            -84.4008   YY=            -84.2386   ZZ=           -105.1624
   XY=             -0.2384   XZ=             -0.0001   YZ=             -0.0000

  Exact polarizability:     877.934       9.353     176.890      -0.000      -0.000      92.376
 Approx polarizability:     487.993     -34.100     241.543       0.000      -0.000     122.052

 Optimization completed.
    -- Stationary point found.
 Normal termination of Gaussian 16 at Mon Mar  4 16:49:47 2024.

 ----------------------------------------------------------------------
 #p CAM-B3LYP/TZVP Freq(ReadFC, FC, ReadFCHT) NoSymm geom=check guess=r
 ead
 ----------------------------------------------------------------------

 FC analysis for simulated absorption spectra of DPB in its gaseous sta
 te
 ----------------------------------------------------------------------
 Structure from the checkpoint file:  "DPB1.chk"
 Charge =  0 Multiplicity = 1

 Normal termination of Gaussian 16 at Mon Mar  4 16:50:00 2024.
 Gaussian 16:  ES64L-G16RevC.01  3-Jul-2019

 ----------------------------------------------------------------------
 #p CAM-B3LYP/TZVP Freq(ReadFC, FC, ReadFCHT, Emission) NoSymm geom=che
 ck guess=read
 ----------------------------------------------------------------------

 ----------------------------------------------------------------------
 FC analysis for simulated emission spectra of DPB in its gaseous state
 ----------------------------------------------------------------------
 Structure from the checkpoint file:  "DPB1.chk"
 Charge =  0 Multiplicity = 1

                      1                      2                      3
                      A                      A                      A
 Frequencies --     11.1500                21.8790                38.4239
 Red. masses --      3.5850                 2.6888                 5.2520
 Frc consts  --      0.0003                 0.0008                 0.0046
 IR Inten    --      0.0019                 0.0000                 0.2993

                      4                      5                      6
                      A                      A                      A
 Frequencies --     48.1351               138.6070               155.4719
 Red. masses --      4.7246                 5.0273                 3.7812
 Frc consts  --      0.0064                 0.0569                 0.0538
 IR Inten    --      0.3962                 0.0000                 0.2609

                      7                      8                      9
                      A                      A                      A
 Frequencies --    159.0244               229.3606               296.9239
 Red. masses --      2.3140                 5.6510                 2.4855
 Frc consts  --      0.0345                 0.1752                 0.1291
 IR Inten    --      0.0000                 0.0000                 0.2194

                     10                     11                     12
                      A                      A                      A
 Frequencies --    307.6799               326.8219               416.4962
 Red. masses --      4.5458                 4.2692                 2.9095
 Frc consts  --      0.2535                 0.2687                 0.2974
 IR Inten    --      2.3147                 0.0000                 0.0180

                     13                     14                     15
                      A                      A                      A
 Frequencies --    417.0070               467.3419               483.3689
 Red. masses --      2.9290                 5.6009                 4.0379
 Frc consts  --      0.3001                 0.7207                 0.5559
 IR Inten    --      0.0000                11.4146                 0.0000

                     16                     17                     18
                      A                      A                      A
 Frequencies --    505.6017               537.7121               630.7385
 Red. masses --      2.6977                 3.2595                 6.1520
 Frc consts  --      0.4063                 0.5553                 1.4420
 IR Inten    --     14.6155                 0.0000                 0.0000

                     19                     20                     21
                      A                      A                      A
 Frequencies --    644.3264               645.8746               657.8444
 Red. masses --      6.3582                 6.3412                 4.5438
 Frc consts  --      1.5552                 1.5585                 1.1586
 IR Inten    --      0.1687                 0.0000                 9.5298

                     22                     23                     24
                      A                      A                      A
 Frequencies --    697.8520               701.7968               763.5529
 Red. masses --      2.2947                 2.0198                 1.4192
 Frc consts  --      0.6584                 0.5861                 0.4875
 IR Inten    --     38.8470                 0.0001               115.5148

                     25                     26                     27
                      A                      A                      A
 Frequencies --    778.1178               850.2708               861.7501
 Red. masses --      1.6950                 4.3949                 1.4166
 Frc consts  --      0.6046                 1.8720                 0.6198
 IR Inten    --      0.0000                 1.0222                 1.7360

                     28                     29                     30
                      A                      A                      A
 Frequencies --    866.4413               877.4002               884.9964
 Red. masses --      1.2670                 1.5258                 4.3238
 Frc consts  --      0.5604                 0.6920                 1.9953
 IR Inten    --      0.0000                 4.5309                 0.0000

                     31                     32                     33
                      A                      A                      A
 Frequencies --    923.3553               945.6793               949.0221
 Red. masses --      1.6428                 1.4940                 1.7136
 Frc consts  --      0.8252                 0.7872                 0.9093
 IR Inten    --      0.0000                 3.4011                 0.0000

                     34                     35                     36
                      A                      A                      A
 Frequencies --    978.4084               994.2214               994.4265
 Red. masses --      1.1466                 1.3582                 1.3582
 Frc consts  --      0.6467                 0.7910                 0.7913
 IR Inten    --      0.0000                 0.5915                 0.0005

                     37                     38                     39
                      A                      A                      A
 Frequencies --   1011.6733              1013.6909              1032.4123
 Red. masses --      1.2559                 1.2565                 5.9570
 Frc consts  --      0.7573                 0.7607                 3.7409
 IR Inten    --      3.2859                 0.0000                 0.0007

                     40                     41                     42
                      A                      A                      A
 Frequencies --   1032.4236              1034.7829              1068.5529
 Red. masses --      5.9358                 1.0958                 2.1719
 Frc consts  --      3.7278                 0.6913                 1.4611
 IR Inten    --      0.0207                75.1466                 9.3271

                     43                     44                     45
                      A                      A                      A
 Frequencies --   1069.1110              1118.8937              1120.4573
 Red. masses --      2.1259                 1.6546                 1.5609
 Frc consts  --      1.4317                 1.2205                 1.1546
 IR Inten    --      0.0002                 0.0001                12.2191

                     46                     47                     48
                      A                      A                      A
 Frequencies --   1175.4964              1192.1826              1193.9158
 Red. masses --      2.3864                 1.1554                 1.1910
 Frc consts  --      1.9428                 0.9675                 1.0002
 IR Inten    --      0.0000                 0.4346                 0.0000

                     49                     50                     51
                      A                      A                      A
 Frequencies --   1218.6266              1219.3564              1242.9204
 Red. masses --      1.1354                 1.1368                 1.6685
 Frc consts  --      0.9934                 0.9959                 1.5187
 IR Inten    --      0.8322                 0.0000                 0.9087

                     52                     53                     54
                      A                      A                      A
 Frequencies --   1263.0241              1263.3956              1321.4588
 Red. masses --      2.0076                 2.1555                 3.7830
 Frc consts  --      1.8869                 2.0271                 3.8922
 IR Inten    --      2.5852                 0.0000                 0.0000

                     55                     56                     57
                      A                      A                      A
 Frequencies --   1333.2768              1347.4490              1359.6821
 Red. masses --      3.1026                 1.6052                 1.4614
 Frc consts  --      3.2495                 1.7171                 1.5918
 IR Inten    --      6.0773                 0.0000                 1.1048

                     58                     59                     60
                      A                      A                      A
 Frequencies --   1369.6004              1380.4870              1397.1659
 Red. masses --      1.6113                 1.2849                 1.4415
 Frc consts  --      1.7808                 1.4428                 1.6579
 IR Inten    --      0.0000                 0.6116                 0.0000

                     61                     62                     63
                      A                      A                      A
 Frequencies --   1503.3947              1508.3657              1552.7050
 Red. masses --      2.2909                 2.2828                 2.2603
 Frc consts  --      3.0507                 3.0600                 3.2106
 IR Inten    --     13.9344                 0.0000                39.2174

                     64                     65                     66
                      A                      A                      A
 Frequencies --   1554.9911              1652.3790              1655.4543
 Red. masses --      2.3205                 5.5040                 5.4263
 Frc consts  --      3.3059                 8.8542                 8.7617
 IR Inten    --      0.0000                 2.8361                 0.0000

                     67                     68                     69
                      A                      A                      A
 Frequencies --   1679.0441              1681.2383              1714.0298
 Red. masses --      5.5968                 5.7305                 5.9468
 Frc consts  --      9.2964                 9.5434                10.2937
 IR Inten    --      0.0001                28.5156                 3.7529

                     70                     71                     72
                      A                      A                      A
 Frequencies --   1733.6019              3155.2711              3156.9111
 Red. masses --      5.2850                 1.0900                 1.0891
 Frc consts  --      9.3583                 6.3935                 6.3952
 IR Inten    --      0.0000                15.6849                 0.0050

                     73                     74                     75
                      A                      A                      A
 Frequencies --   3167.2394              3176.2553              3187.8542
 Red. masses --      1.0884                 1.0876                 1.0872
 Frc consts  --      6.4328                 6.4649                 6.5097
 IR Inten    --      0.0010                43.1780                11.4620

                     76                     77                     78
                      A                      A                      A
 Frequencies --   3187.8642              3194.7764              3194.9153
 Red. masses --      1.0872                 1.0878                 1.0878
 Frc consts  --      6.5099                 6.5413                 6.5420
 IR Inten    --      5.6729                 0.0031                 0.5971

                     79                     80                     81
                      A                      A                      A
 Frequencies --   3204.2608              3204.2814              3213.2958
 Red. masses --      1.0917                 1.0917                 1.0937
 Frc consts  --      6.6038                 6.6042                 6.6533
 IR Inten    --     17.4868                 1.6270                 1.6724

                     82                     83                     84
                      A                      A                      A
 Frequencies --   3213.4203              3220.7868              3220.8696
 Red. masses --      1.0936                 1.0981                 1.0982
 Frc consts  --      6.6534                 6.7117                 6.7123
 IR Inten    --     37.0930                28.5356                 0.3978

 - Thermochemistry -
 -------------------
 Temperature   298.150 Kelvin.  Pressure   1.00000 Atm.
 Atom     1 has atomic number  6 and mass  12.00000

 Molecular mass:   206.10955 amu.
 Principal axes and moments of inertia in atomic units:
                           1         2         3
     Eigenvalues --   689.95168********************
           X           -0.51555   0.76767   0.38065
           Y            0.82326   0.56695  -0.02836
           Z            0.23758  -0.29875   0.92429
 This molecule is an asymmetric top.
 Rotational symmetry number  1.
 Warning -- assumption of classical behavior for rotation
           may cause significant error
 Rotational temperatures (Kelvin)      0.12554     0.00700     0.00663
 Rotational constants (GHZ):           2.61575     0.14590     0.13819
 Zero-point vibrational energy     657469.5 (Joules/Mol)
                                  157.13899 (Kcal/Mol)
 Warning -- explicit consideration of  17 degrees of freedom as
           vibrations may cause significant error
 Vibrational temperatures:     16.04    31.48    55.28    69.26   199.42
          (Kelvin)            223.69   228.80   330.00   427.21   442.68
                              470.22   599.25   599.98   672.40   695.46
                              727.45   773.65   907.49   927.04   929.27
                              946.49  1004.05  1009.73  1098.58  1119.54
                             1223.35  1239.87  1246.62  1262.38  1273.31
                             1328.50  1360.62  1365.43  1407.71  1430.46
                             1430.76  1455.57  1458.48  1485.41  1485.43
                             1488.82  1537.41  1538.21  1609.84  1612.09
                             1691.28  1715.28  1717.78  1753.33  1754.38
                             1788.29  1817.21  1817.74  1901.28  1918.29
                             1938.68  1956.28  1970.55  1986.21  2010.21
                             2163.05  2170.20  2234.00  2237.29  2377.40
                             2381.83  2415.77  2418.93  2466.11  2494.27
                             4539.73  4542.09  4556.95  4569.92  4586.61
                             4586.63  4596.57  4596.77  4610.22  4610.25
                             4623.22  4623.40  4633.99  4634.11

 Zero-point correction=                           0.250417 (Hartree/Particle)
 Thermal correction to Energy=                    0.263911
 Thermal correction to Enthalpy=                  0.264855
 Thermal correction to Gibbs Free Energy=         0.206364
 Sum of electronic and zero-point Energies=           -617.692263
 Sum of electronic and thermal Energies=              -617.678770
 Sum of electronic and thermal Enthalpies=            -617.677826
 Sum of electronic and thermal Free Energies=         -617.736317

                     E (Thermal)             CV                S
                      KCal/Mol        Cal/Mol-Kelvin    Cal/Mol-Kelvin
 Total                  165.606             52.085            123.106
 Electronic               0.000              0.000              0.000
 Translational            0.889              2.981             41.874
 Rotational               0.889              2.981             33.077
 Vibrational            163.829             46.123             48.155
 Vibration     1          0.593              1.987              7.795
 Vibration     2          0.593              1.985              6.456
 Vibration     3          0.594              1.982              5.339
 Vibration     4          0.595              1.978              4.893
 Vibration     5          0.614              1.915              2.823
 Vibration     6          0.620              1.897              2.604
 Vibration     7          0.621              1.892              2.561
 Vibration     8          0.652              1.796              1.884
 Vibration     9          0.691              1.679              1.434
 Vibration    10          0.698              1.659              1.375
 Vibration    11          0.710              1.622              1.276
 Vibration    12          0.780              1.434              0.904
 Vibration    13          0.780              1.433              0.902
 Vibration    14          0.825              1.323              0.745
 Vibration    15          0.840              1.287              0.701
 Vibration    16          0.861              1.238              0.644
 Vibration    17          0.893              1.167              0.570

 Normal termination of Gaussian 16 at Mon Mar  4 16:50:12 2024.
