 Gaussian 16, Revision C.01,

 --------------------------------------------
 #p opt freq b3lyp/def2tzvp geom=connectivity
 --------------------------------------------

 Ground state optimization and frequency calculation for cationic anthr
 acene.
 ----------------------------------------------------------------------
 Symbolic Z-matrix:
 Charge =  1 Multiplicity = 2

 SCF Done:  E(UB3LYP) =  -539.457938125     A.U. after   22 cycles
 SCF Done:  E(UB3LYP) =  -539.462548837     A.U. after   21 cycles
 SCF Done:  E(UB3LYP) =  -539.462990411     A.U. after   10 cycles
 SCF Done:  E(UB3LYP) =  -539.463021080     A.U. after    9 cycles
 Optimization completed.
    -- Stationary point found.
 Normal termination of Gaussian 16 at Wed Apr  3 15:34:57 2024.

 --------------------------------------------------------------------
 #P Geom=AllCheck Guess=TCheck SCRF=Check GenChk UB3LYP/def2TZVP Freq
 --------------------------------------------------------------------

 ----------------------------------------------------------------------
 Ground state optimization and frequency calculation for cationic anthr
 acene.
 ----------------------------------------------------------------------
 Charge =  1 Multiplicity = 2

 SCF Done:  E(UB3LYP) =  -539.463021080     A.U. after    1 cycles
 Optimization completed.
 Normal termination of Gaussian 16 at Wed Apr  3 15:48:21 2024.

 ----------------------------------------------------------------------
 #p opt freq=savenormalmodes b3lyp/def2tzvp TD=(nstates=2, Root=1) geom
 =check
 ----------------------------------------------------------------------

 --------------------------------------------------------------------
 Cationic anthracene TD-DFT excitation/optimization freq calculation.
 --------------------------------------------------------------------
 Structure from the checkpoint file:  "Anthracene_c_1-2.chk"
 Charge =  1 Multiplicity = 2

 SCF Done:  E(UB3LYP) =  -539.463021080     A.U. after   32 cycles
 Total Energy, E(TD-HF/TD-DFT) =  -539.406182353
 SCF Done:  E(UB3LYP) =  -539.456690896     A.U. after   17 cycles
 Total Energy, E(TD-HF/TD-DFT) =  -539.414041796
 SCF Done:  E(UB3LYP) =  -539.454565033     A.U. after   13 cycles
 Total Energy, E(TD-HF/TD-DFT) =  -539.414616443
 SCF Done:  E(UB3LYP) =  -539.454412810     A.U. after    8 cycles
 Total Energy, E(TD-HF/TD-DFT) =  -539.414636854
    -- Stationary point found.
 Normal termination of Gaussian 16 at Wed Apr  3 16:40:47 2024.

 ----------------------------------------------------------------------
 #P Geom=AllCheck Guess=TCheck SCRF=Check GenChk UB3LYP TD(FC,Read)/def
 2TZVP Freq
 ----------------------------------------------------------------------

 Structure from the checkpoint file:  "Anthracene_c_1-2.chk"
 --------------------------------------------------------------------
 Cationic anthracene TD-DFT excitation/optimization freq calculation.
 --------------------------------------------------------------------
 Charge =  1 Multiplicity = 2

 SCF Done:  E(UB3LYP) =  -539.454412810     A.U. after    1 cycles

 Excitation energies and oscillator strengths:

 Excited State   1:  2.028-A      1.0824 eV 1145.50 nm  f=0.0000  <S**2>=0.778
     46B -> 47B        0.99639
 This state for optimization and/or second-order correction.
 Total Energy, E(TD-HF/TD-DFT) =  -539.414636793
 Copying the excited state density for this state as the 1-particle RhoCI density.

 Excited State   2:  2.022-A      1.8677 eV  663.82 nm  f=0.1055  <S**2>=0.772
     46A -> 48A       -0.18130
     47A -> 49A        0.12581
     45B -> 47B        0.97282

 The electronic state is 2-A.
 Alpha  occ. eigenvalues --  -10.36429 -10.36426 -10.35614 -10.35609 -10.35584
 Alpha  occ. eigenvalues --  -10.35584 -10.34750 -10.34750 -10.34748 -10.34747
 Alpha  occ. eigenvalues --  -10.34294 -10.34293 -10.34256 -10.34256  -1.05355
 Alpha  occ. eigenvalues --   -1.01739  -0.97077  -0.96507  -0.92632  -0.89923
 Alpha  occ. eigenvalues --   -0.88198  -0.80789  -0.78956  -0.76801  -0.75216
 Alpha  occ. eigenvalues --   -0.70685  -0.68851  -0.67233  -0.62999  -0.62537
 Alpha  occ. eigenvalues --   -0.62436  -0.60905  -0.59398  -0.58782  -0.57515
 Alpha  occ. eigenvalues --   -0.57469  -0.55108  -0.54251  -0.53099  -0.50731
 Alpha  occ. eigenvalues --   -0.50690  -0.49114  -0.48427  -0.47477  -0.43504
 Alpha  occ. eigenvalues --   -0.40205  -0.37980
 Alpha virt. eigenvalues --   -0.23854  -0.19040  -0.16596  -0.14286  -0.11067
 Alpha virt. eigenvalues --   -0.08037  -0.07675  -0.07182  -0.04999  -0.04560
 Alpha virt. eigenvalues --   -0.02868  -0.02483  -0.02350  -0.02328  -0.01611

  Beta  occ. eigenvalues --  -10.36052 -10.36049 -10.35676 -10.35669 -10.35646
  Beta  occ. eigenvalues --  -10.35643 -10.34558 -10.34558 -10.34557 -10.34555
  Beta  occ. eigenvalues --  -10.34225 -10.34224 -10.34187 -10.34187  -1.04999
  Beta  occ. eigenvalues --   -1.01442  -0.96556  -0.95861  -0.92134  -0.89861
  Beta  occ. eigenvalues --   -0.87350  -0.80492  -0.78719  -0.76520  -0.74971
  Beta  occ. eigenvalues --   -0.70379  -0.68719  -0.67025  -0.62754  -0.62380
  Beta  occ. eigenvalues --   -0.62240  -0.60857  -0.59245  -0.58587  -0.57340
  Beta  occ. eigenvalues --   -0.56522  -0.55018  -0.54091  -0.52261  -0.50648
  Beta  occ. eigenvalues --   -0.50557  -0.49067  -0.46519  -0.45981  -0.41644
  Beta  occ. eigenvalues --   -0.40193
  Beta virt. eigenvalues --   -0.32344  -0.21957  -0.18480  -0.15549  -0.13210
  Beta virt. eigenvalues --   -0.09873  -0.07953  -0.07608  -0.07125  -0.04878
  Beta virt. eigenvalues --   -0.04508  -0.02756  -0.02291  -0.02257  -0.01739

 Mulliken charges and spin densities:
               1          2
     1  C   -0.070463   0.042126
     2  C   -0.140366   0.142212
     3  C    0.136876  -0.055215
     4  C    0.136876  -0.055215
     5  C   -0.140366   0.142212
     6  C   -0.070463   0.042126
     7  C   -0.148699   0.264069
     8  C   -0.148699   0.264069
     9  C    0.136876  -0.055215
    10  C    0.136876  -0.055215
    11  C   -0.140366   0.142212
    12  H    0.154986  -0.004167
    13  C   -0.070463   0.042126
    14  C   -0.070463   0.042126
    15  C   -0.140366   0.142212
    16  H    0.153412  -0.008851
    17  H    0.166610  -0.002566
    18  H    0.154986  -0.004167
    19  H    0.154986  -0.004167
    20  H    0.166610  -0.002566
    21  H    0.153412  -0.008851
    22  H    0.166610  -0.002566
    23  H    0.166610  -0.002566
    24  H    0.154986  -0.004167
 Sum of Mulliken charges =   1.00000   1.00000

 Dipole moment (field-independent basis, Debye):
    X=              0.0000    Y=              0.0000    Z=              0.0000  Tot=              0.0000
 Quadrupole moment (field-independent basis, Debye-Ang):
   XX=            -27.3222   YY=            -55.6311   ZZ=            -83.1872
   XY=              0.0000   XZ=              0.0000   YZ=              0.0000

  Exact polarizability:     344.231       0.000     149.610       0.000      -0.000      72.125
 Approx polarizability:     644.679       0.000     307.428       0.000      -0.000     121.447

 Optimization completed.
    -- Stationary point found.
 Normal termination of Gaussian 16 at Wed Apr  3 17:19:02 2024.

 ------------------------------------------------------------------
 #p B3LYP/def2TZVP Freq(ReadFC, FC, ReadFCHT) geom=check guess=read
 ------------------------------------------------------------------

 Franck-Condon Analysis of cationic anthracene for the absorption spect
 ra.
 ----------------------------------------------------------------------
 Structure from the checkpoint file:  "Anthracene_c_1-1.chk"
 Charge =  1 Multiplicity = 2

 ----------------------------------------------------------------------
 #p B3LYP/def2TZVP Freq(ReadFC, FC, ReadFCHT, emission) geom=check gues
 s=read
 ----------------------------------------------------------------------

 Franck-Condon Analysis of cationic anthracene for the emission spectra
 .
 ----------------------------------------------------------------------
 Structure from the checkpoint file:  "Anthracene_c_1-1.chk"
 Charge =  1 Multiplicity = 2

 Normal termination of Gaussian 16 at Wed Apr  3 17:20:05 2024.
 Normal termination of Gaussian 16 at Wed Apr  3 17:20:27 2024.
 Normal termination of Gaussian 16 at Wed Apr  3 17:20:52 2024.
 Gaussian 16:  ES64L-G16RevC.01  3-Jul-2019

                         Standard orientation:
 ---------------------------------------------------------------------
 Center     Atomic      Atomic             Coordinates (Angstroms)
 Number     Number       Type             X           Y           Z
 ---------------------------------------------------------------------
      1          6           0       -3.653838   -0.699942    0.000066
      2          6           0       -2.459894   -1.401786    0.000040
      3          6           0       -1.227854   -0.717515   -0.000071
      4          6           0       -1.227855    0.717515   -0.000021
      5          6           0       -2.459897    1.401785   -0.000026
      6          6           0       -3.653839    0.699938    0.000049
      7          6           0        0.000002   -1.400230   -0.000092
      8          6           0       -0.000001    1.400231   -0.000009
      9          6           0        1.227853    0.717517   -0.000022
     10          6           0        1.227855   -0.717515   -0.000051
     11          6           0        2.459895   -1.401786    0.000028
     12          1           0        2.465213   -2.484348   -0.000010
     13          6           0        3.653838   -0.699940    0.000059
     14          6           0        3.653837    0.699940    0.000061
     15          6           0        2.459895    1.401786   -0.000015
     16          1           0        0.000007   -2.484033   -0.000151
     17          1           0       -4.593439   -1.235837    0.000106
     18          1           0       -2.465210   -2.484348   -0.000023
     19          1           0       -2.465213    2.484347   -0.000057
     20          1           0       -4.593436    1.235843    0.000144
     21          1           0        0.000005    2.484034   -0.000120
     22          1           0        4.593437   -1.235841    0.000100
     23          1           0        4.593436    1.235841    0.000087
     24          1           0        2.465216    2.484348   -0.000045
 ---------------------------------------------------------------------

                      1                      2                      3
                      A                      A                      A
 Frequencies --     85.4000               118.9900               220.2650
 Red. masses --      4.8752                 3.7592                 4.8130
 Frc consts  --      0.0209                 0.0314                 0.1376
 IR Inten    --      1.7167                 0.0000                 0.0000

                      4                      5                      6
                      A                      A                      A
 Frequencies --    234.5371               272.0613               354.9299
 Red. masses --      4.4659                 3.4847                 6.3874
 Frc consts  --      0.1447                 0.1520                 0.4741
 IR Inten    --      0.4310                 0.0000                 0.0000

                      7                      8                      9
                      A                      A                      A
 Frequencies --    386.6465               386.9849               447.6079
 Red. masses --      3.1201                 4.8065                 2.3312
 Frc consts  --      0.2748                 0.4241                 0.2752
 IR Inten    --      0.0599                 0.0000                29.7420

                     10                     11                     12
                      A                      A                      A
 Frequencies --    464.7440               487.5248               519.6389
 Red. masses --      3.0306                 3.3599                 6.0121
 Frc consts  --      0.3857                 0.4705                 0.9565
 IR Inten    --      0.0000                 0.0000                 0.0000

                     13                     14                     15
                      A                      A                      A
 Frequencies --    567.0161               611.0929               628.6272
 Red. masses --      2.7201                 6.8756                 6.8005
 Frc consts  --      0.5153                 1.5128                 1.5833
 IR Inten    --      0.0000                 1.4749                 0.0000

                     16                     17                     18
                      A                      A                      A
 Frequencies --    669.6125               744.3363               757.5358
 Red. masses --      6.0370                 5.9916                 3.4704
 Frc consts  --      1.5948                 1.9558                 1.1734
 IR Inten    --      0.0053                 0.0000                 0.0000

                     19                     20                     21
                      A                      A                      A
 Frequencies --    769.1702               777.4342               782.9876
 Red. masses --      1.1704                 1.2361                 2.6658
 Frc consts  --      0.4080                 0.4402                 0.9629
 IR Inten    --     87.3989                 0.0000                 0.0000

                     22                     23                     24
                      A                      A                      A
 Frequencies --    834.4536               872.7753               908.1097
 Red. masses --      3.5445                 1.3017                 1.4831
 Frc consts  --      1.4542                 0.5842                 0.7206
 IR Inten    --      1.7699                 0.0000                 0.0000

                     25                     26                     27
                      A                      A                      A
 Frequencies --    920.2656               930.5423               936.4618
 Red. masses --      5.5828                 5.3131                 1.4622
 Frc consts  --      2.7857                 2.7106                 0.7555
 IR Inten    --      0.6293                 0.0000                29.2090

                     28                     29                     30
                      A                      A                      A
 Frequencies --    963.9203               993.9270              1000.3484
 Red. masses --      1.8104                 1.3987                 1.4654
 Frc consts  --      0.9911                 0.8141                 0.8640
 IR Inten    --      0.0000                 0.0000                 7.2557

                     31                     32                     33
                      A                      A                      A
 Frequencies --   1027.9570              1029.3524              1045.2201
 Red. masses --      1.4116                 1.4147                 2.3550
 Frc consts  --      0.8788                 0.8832                 1.5158
 IR Inten    --      0.0000                 0.0000                 0.0000

                     34                     35                     36
                      A                      A                      A
 Frequencies --   1053.3261              1123.2558              1160.8943
 Red. masses --      2.2328                 1.9888                 1.4768
 Frc consts  --      1.4596                 1.4784                 1.1726
 IR Inten    --      4.2936                 0.0000                 0.0055

                     37                     38                     39
                      A                      A                      A
 Frequencies --   1190.6182              1206.0451              1212.6474
 Red. masses --      1.1811                 1.0852                 1.4465
 Frc consts  --      0.9865                 0.9300                 1.2532
 IR Inten    --      0.1138                 0.0000               161.1440

                     40                     41                     42
                      A                      A                      A
 Frequencies --   1212.7375              1284.7978              1304.7351
 Red. masses --      1.3783                 2.7454                 1.6448
 Frc consts  --      1.1943                 2.6701                 1.6498
 IR Inten    --      0.0004                 0.0000                 0.0000

                     43                     44                     45
                      A                      A                      A
 Frequencies --   1313.2259              1322.3083              1374.7683
 Red. masses --      2.4745                 2.7220                 7.8138
 Frc consts  --      2.5143                 2.8042                 8.7011
 IR Inten    --     18.8983                 5.7326               310.7731

                     46                     47                     48
                      A                      A                      A
 Frequencies --   1410.2294              1431.4442              1435.4808
 Red. masses --     10.3014                 4.4681                 1.5835
 Frc consts  --     12.0705                 5.3942                 1.9225
 IR Inten    --      0.0000               150.6008                 0.0000

                     49                     50                     51
                      A                      A                      A
 Frequencies --   1490.6715              1491.6510              1538.9705
 Red. masses --      2.2396                 1.8094                 2.6212
 Frc consts  --      2.9321                 2.3720                 3.6577
 IR Inten    --     19.5708                56.3055                 0.0000

                     52                     53                     54
                      A                      A                      A
 Frequencies --   1553.6260              1573.8754              1577.0943
 Red. masses --      4.2494                 3.8028                 3.8672
 Frc consts  --      6.0433                 5.5500                 5.6672
 IR Inten    --      0.0000                79.0498                 0.0000

                     55                     56                     57
                      A                      A                      A
 Frequencies --   1600.3022              1617.4276              3180.4642
 Red. masses --      6.7053                 5.1128                 1.0905
 Frc consts  --     10.1174                 7.8807                 6.4992
 IR Inten    --      0.0000                55.1087                 0.0436

                     58                     59                     60
                      A                      A                      A
 Frequencies --   3181.9025              3188.8178              3189.0702
 Red. masses --      1.0926                 1.0888                 1.0889
 Frc consts  --      6.5178                 6.5231                 6.5247
 IR Inten    --      0.0000                 0.0000                 0.0033

                     61                     62                     63
                      A                      A                      A
 Frequencies --   3191.8652              3191.8784              3202.7780
 Red. masses --      1.0916                 1.0901                 1.0929
 Frc consts  --      6.5522                 6.5433                 6.6051
 IR Inten    --      0.0027                 0.8636                 0.0000

                     64                     65                     66
                      A                      A                      A
 Frequencies --   3202.8935              3211.0974              3212.6293
 Red. masses --      1.0929                 1.1054                 1.0970
 Frc consts  --      6.6058                 6.7154                 6.6711
 IR Inten    --      0.3532                 0.0000                 0.1391

 - Thermochemistry -
 -------------------
 Temperature   298.150 Kelvin.  Pressure   1.00000 Atm.
 Atom     1 has atomic number  6 and mass  12.00000

 Molecular mass:   178.07825 amu.
 Principal axes and moments of inertia in atomic units:
                           1         2         3
     Eigenvalues --   832.340033975.316644807.65667
           X            1.00000  -0.00000  -0.00000
           Y            0.00000   1.00000  -0.00000
           Z            0.00000   0.00000   1.00000
 This molecule is an asymmetric top.
 Rotational symmetry number  1.
 Warning -- assumption of classical behavior for rotation
           may cause significant error
 Rotational temperatures (Kelvin)      0.10406     0.02179     0.01802
 Rotational constants (GHZ):           2.16827     0.45399     0.37539
 Zero-point vibrational energy     509513.5 (Joules/Mol)
                                  121.77665 (Kcal/Mol)
 Warning -- explicit consideration of  14 degrees of freedom as
           vibrations may cause significant error
 Vibrational temperatures:    122.87   171.20   316.91   337.45   391.44
          (Kelvin)            510.66   556.30   556.78   644.01   668.66
                              701.44   747.64   815.81   879.23   904.45
                              963.42  1070.93  1089.93  1106.66  1118.55
                             1126.54  1200.59  1255.73  1306.57  1324.06
                             1338.84  1347.36  1386.87  1430.04  1439.28
                             1479.00  1481.01  1503.84  1515.50  1616.11
                             1670.27  1713.03  1735.23  1744.73  1744.86
                             1848.54  1877.22  1889.44  1902.51  1977.98
                             2029.01  2059.53  2065.34  2144.74  2146.15
                             2214.24  2235.32  2264.46  2269.09  2302.48
                             2327.12  4575.98  4578.05  4588.00  4588.36
                             4592.38  4592.40  4608.08  4608.25  4620.05
                             4622.26

 Zero-point correction=                           0.194063 (Hartree/Particle)
 Thermal correction to Energy=                    0.203643
 Thermal correction to Enthalpy=                  0.204587
 Thermal correction to Gibbs Free Energy=         0.158452
 Sum of electronic and zero-point Energies=           -539.268958
 Sum of electronic and thermal Energies=              -539.259378
 Sum of electronic and thermal Enthalpies=            -539.258434
 Sum of electronic and thermal Free Energies=         -539.304569

                     E (Thermal)             CV                S
                      KCal/Mol        Cal/Mol-Kelvin    Cal/Mol-Kelvin
 Total                  127.788             40.747             97.100
 Electronic               0.000              0.000              1.377
 Translational            0.889              2.981             41.438
 Rotational               0.889              2.981             31.143
 Vibrational            126.010             34.786             23.141
 Vibration     1          0.601              1.959              3.763
 Vibration     2          0.609              1.933              3.117
 Vibration     3          0.647              1.810              1.957
 Vibration     4          0.654              1.788              1.844
 Vibration     5          0.675              1.725              1.583
 Vibration     6          0.731              1.565              1.144
 Vibration     7          0.755              1.499              1.013
 Vibration     8          0.755              1.498              1.012
 Vibration     9          0.807              1.366              0.803
 Vibration    10          0.822              1.328              0.752
 Vibration    11          0.843              1.278              0.690
 Vibration    12          0.875              1.207              0.611
 Vibration    13          0.923              1.103              0.510
 Vibration    14          0.970              1.008              0.431

 Normal termination of Gaussian 16 at Wed Apr  3 17:21:13 2024.
