 Gaussian 16, Revision C.01,

 --------------------------------------------
 #p opt freq b3lyp/def2tzvp geom=connectivity
 --------------------------------------------

 Ground state optimization and frequency calculation for neutral anthra
 cene.
 ----------------------------------------------------------------------
 Symbolic Z-matrix:
 Charge =  0 Multiplicity = 1

 SCF Done:  E(RB3LYP) =  -539.720334085     A.U. after   22 cycles
 SCF Done:  E(RB3LYP) =  -539.722608073     A.U. after   20 cycles
 SCF Done:  E(RB3LYP) =  -539.722658451     A.U. after    8 cycles
 SCF Done:  E(RB3LYP) =  -539.722667145     A.U. after    8 cycles
 Optimization completed.
    -- Stationary point found.
 Normal termination of Gaussian 16 at Wed Apr  3 15:46:03 2024.

 --------------------------------------------------------------------
 #P Geom=AllCheck Guess=TCheck SCRF=Check GenChk RB3LYP/def2TZVP Freq
 --------------------------------------------------------------------

 ----------------------------------------------------------------------
 Ground state optimization and frequency calculation for neutral anthra
 cene.
 ----------------------------------------------------------------------
 Charge =  0 Multiplicity = 1

 SCF Done:  E(RB3LYP) =  -539.722667145     A.U. after    1 cycles
 Optimization completed.
 Normal termination of Gaussian 16 at Wed Apr  3 15:55:38 2024.

 ----------------------------------------------------------------------
 #p opt freq=savenormalmodes b3lyp/def2tzvp TD=(nstates=2, Root=1) geom
 =check
 ----------------------------------------------------------------------

 -------------------------------------------------------------------
 Neutral anthracene TD-DFT excitation/optimization freq calculation.
 -------------------------------------------------------------------
 Structure from the checkpoint file:  "Anthracene_n_1-2.chk"
 Charge =  0 Multiplicity = 1

 SCF Done:  E(RB3LYP) =  -539.722667145     A.U. after   15 cycles
 Total Energy, E(TD-HF/TD-DFT) =  -539.604842917
 SCF Done:  E(RB3LYP) =  -539.717433626     A.U. after   19 cycles
 Total Energy, E(TD-HF/TD-DFT) =  -539.612318315
 SCF Done:  E(RB3LYP) =  -539.714847442     A.U. after   13 cycles
 Total Energy, E(TD-HF/TD-DFT) =  -539.613080079
 SCF Done:  E(RB3LYP) =  -539.714590177     A.U. after    8 cycles
 Total Energy, E(TD-HF/TD-DFT) =  -539.613119653
 SCF Done:  E(RB3LYP) =  -539.714632996     A.U. after    7 cycles
 Total Energy, E(TD-HF/TD-DFT) =  -539.613122347
    -- Stationary point found.
 Normal termination of Gaussian 16 at Wed Apr  3 16:35:16 2024.

 ----------------------------------------------------------------------
 #P Geom=AllCheck Guess=TCheck SCRF=Check GenChk RB3LYP TD(FC,Read)/def
 2TZVP Freq
 ----------------------------------------------------------------------

 Structure from the checkpoint file:  "Anthracene_n_1-2.chk"
 -------------------------------------------------------------------
 Neutral anthracene TD-DFT excitation/optimization freq calculation.
 -------------------------------------------------------------------
 Charge =  0 Multiplicity = 1

 SCF Done:  E(RB3LYP) =  -539.714632996     A.U. after    1 cycles

 Excitation energies and oscillator strengths:

 Excited State   1:      Singlet-A      2.7622 eV  448.85 nm  f=0.0540  <S**2>=0.000
      47 -> 48         0.70461
 This state for optimization and/or second-order correction.
 Total Energy, E(TD-HF/TD-DFT) =  -539.613122341
 Copying the excited state density for this state as the 1-particle RhoCI density.

 Excited State   2:      Singlet-A      3.7275 eV  332.62 nm  f=0.0000  <S**2>=0.000
      46 -> 48         0.49945
      47 -> 49         0.49842

 The electronic state is 1-A.
 Alpha  occ. eigenvalues --  -10.18942 -10.18941 -10.18907 -10.18903 -10.18281
 Alpha  occ. eigenvalues --  -10.18279 -10.18223 -10.18222 -10.18222 -10.18221
 Alpha  occ. eigenvalues --  -10.18118 -10.18118 -10.18062 -10.18062  -0.88704
 Alpha  occ. eigenvalues --   -0.85729  -0.80567  -0.78702  -0.75395  -0.75000
 Alpha  occ. eigenvalues --   -0.69953  -0.65869  -0.61793  -0.60582  -0.59916
 Alpha  occ. eigenvalues --   -0.54753  -0.52899  -0.50917  -0.47000  -0.46968
 Alpha  occ. eigenvalues --   -0.45475  -0.45421  -0.42660  -0.41666  -0.41657
 Alpha  occ. eigenvalues --   -0.40813  -0.39967  -0.38084  -0.37117  -0.35682
 Alpha  occ. eigenvalues --   -0.34258  -0.33369  -0.31172  -0.30529  -0.26257
 Alpha  occ. eigenvalues --   -0.25438  -0.19568
 Alpha virt. eigenvalues --   -0.08292  -0.02311  -0.01152   0.01768   0.04823
 Alpha virt. eigenvalues --    0.05039   0.05211   0.05464   0.07721   0.07983
 Alpha virt. eigenvalues --    0.09705   0.09779   0.11016   0.12001   0.12453

 Mulliken charges:
               1
     1  C   -0.102873
     2  C   -0.187241
     3  C    0.156539
     4  C    0.156540
     5  C   -0.187236
     6  C   -0.102874
     7  C   -0.249778
     8  C   -0.249770
     9  C    0.156540
    10  C    0.156539
    11  C   -0.187241
    12  H    0.102485
    13  C   -0.102873
    14  C   -0.102874
    15  C   -0.187236
    16  H    0.092467
    17  H    0.109742
    18  H    0.102485
    19  H    0.102484
    20  H    0.109742
    21  H    0.092466
    22  H    0.109742
    23  H    0.109742
    24  H    0.102484
 Sum of Mulliken charges =  -0.00000

 Dipole moment (field-independent basis, Debye):
    X=              0.0000    Y=             -0.0001    Z=             -0.0000  Tot=              0.0001
 Quadrupole moment (field-independent basis, Debye-Ang):
   XX=            -71.2106   YY=            -72.4396   ZZ=            -88.2870
   XY=              0.0000   XZ=              0.0000   YZ=              0.0000

  Exact polarizability:     524.079       0.000     171.083      -0.000      -0.000      79.408
 Approx polarizability:     505.228      -0.000     329.743       0.000      -0.000     132.565

 Optimization completed.
    -- Stationary point found.
 Normal termination of Gaussian 16 at Wed Apr  3 17:02:31 2024.

 ------------------------------------------------------------------
 #p B3LYP/def2TZVP Freq(ReadFC, FC, ReadFCHT) geom=check guess=read
 ------------------------------------------------------------------

 Franck-Condon Analysis of neutral anthracene for the absorption spectr
 a.
 ----------------------------------------------------------------------
 Structure from the checkpoint file:  "Anthracene_n_1-1.chk"
 Charge =  0 Multiplicity = 1

 ----------------------------------------------------------------------
 #p B3LYP/def2TZVP Freq(ReadFC, FC, ReadFCHT, emission) geom=check gues
 s=read
 ----------------------------------------------------------------------

 ----------------------------------------------------------------------
 Franck-Condon Analysis of neutral anthracene for the emission spectra.
 ----------------------------------------------------------------------
 Structure from the checkpoint file:  "Anthracene_n_1-1.chk"
 Charge =  0 Multiplicity = 1

 Normal termination of Gaussian 16 at Wed Apr  3 17:03:43 2024.
 Normal termination of Gaussian 16 at Wed Apr  3 17:04:06 2024.
 Normal termination of Gaussian 16 at Wed Apr  3 17:04:33 2024.
 Gaussian 16:  ES64L-G16RevC.01  3-Jul-2019

                         Standard orientation:
 ---------------------------------------------------------------------
 Center     Atomic      Atomic             Coordinates (Angstroms)
 Number     Number       Type             X           Y           Z
 ---------------------------------------------------------------------
      1          6           0       -3.647125   -0.710839   -0.000022
      2          6           0       -2.471453   -1.401734    0.000051
      3          6           0       -1.219215   -0.719985    0.000040
      4          6           0       -1.219216    0.719985    0.000026
      5          6           0       -2.471454    1.401733   -0.000030
      6          6           0       -3.647126    0.710835   -0.000070
      7          6           0        0.000000   -1.398436    0.000035
      8          6           0       -0.000001    1.398437    0.000030
      9          6           0        1.219215    0.719987    0.000030
     10          6           0        1.219216   -0.719984    0.000009
     11          6           0        2.471453   -1.401734   -0.000038
     12          1           0        2.470786   -2.485407   -0.000091
     13          6           0        3.647126   -0.710837   -0.000062
     14          6           0        3.647125    0.710836   -0.000009
     15          6           0        2.471454    1.401734    0.000035
     16          1           0        0.000006   -2.483022    0.000050
     17          1           0       -4.590396   -1.242381   -0.000048
     18          1           0       -2.470783   -2.485407    0.000102
     19          1           0       -2.470785    2.485406   -0.000038
     20          1           0       -4.590392    1.242387   -0.000128
     21          1           0        0.000005    2.483023    0.000040
     22          1           0        4.590393   -1.242385   -0.000094
     23          1           0        4.590393    1.242384   -0.000025
     24          1           0        2.470789    2.485407    0.000088
 ---------------------------------------------------------------------

                      1                      2                      3
                      A                      A                      A
 Frequencies --     90.4153               120.9054               235.6970
 Red. masses --      4.9319                 3.6782                 4.8360
 Frc consts  --      0.0238                 0.0317                 0.1583
 IR Inten    --      1.3126                 0.0000                 0.0001

                      4                      5                      6
                      A                      A                      A
 Frequencies --    236.1508               269.8760               357.3400
 Red. masses --      4.4512                 3.6865                 6.3507
 Frc consts  --      0.1463                 0.1582                 0.4778
 IR Inten    --      1.3849                 0.0000                 0.0000

                      7                      8                      9
                      A                      A                      A
 Frequencies --    388.8955               396.2995               480.9476
 Red. masses --      3.2912                 4.6007                 2.4194
 Frc consts  --      0.2933                 0.4257                 0.3297
 IR Inten    --      0.0376                 0.0000                25.9283

                     10                     11                     12
                      A                      A                      A
 Frequencies --    486.3274               508.4753               536.1058
 Red. masses --      2.7848                 3.5693                 6.2089
 Frc consts  --      0.3881                 0.5437                 1.0514
 IR Inten    --      0.0000                 0.0000                 0.0000

                     13                     14                     15
                      A                      A                      A
 Frequencies --    592.3458               618.5409               642.7788
 Red. masses --      3.4967                 6.8004                 6.6490
 Frc consts  --      0.7229                 1.5329                 1.6186
 IR Inten    --      0.0000                 8.3314                 0.0000

                     16                     17                     18
                      A                      A                      A
 Frequencies --    662.9314               740.4639               744.5025
 Red. masses --      6.0578                 1.1943                 6.0518
 Frc consts  --      1.5686                 0.3858                 1.9764
 IR Inten    --      0.6226                84.7359                 0.0000

                     19                     20                     21
                      A                      A                      A
 Frequencies --    763.4538               770.4453               790.2680
 Red. masses --      3.6567                 1.3475                 2.4708
 Frc consts  --      1.2558                 0.4713                 0.9091
 IR Inten    --      0.0000                 0.0000                 0.0000

                     22                     23                     24
                      A                      A                      A
 Frequencies --    822.6133               844.8016               868.9427
 Red. masses --      3.6451                 1.2730                 1.6374
 Frc consts  --      1.4533                 0.5353                 0.7284
 IR Inten    --      0.0980                 0.0000                 0.0000

                     25                     26                     27
                      A                      A                      A
 Frequencies --    900.1868               922.5106               923.2445
 Red. masses --      1.4474                 5.5040                 1.9437
 Frc consts  --      0.6910                 2.7597                 0.9762
 IR Inten    --     54.1277                 1.7801                 0.0000

                     28                     29                     30
                      A                      A                      A
 Frequencies --    932.7563               956.2467               961.5108
 Red. masses --      5.4119                 1.3269                 1.3752
 Frc consts  --      2.7742                 0.7148                 0.7491
 IR Inten    --      0.0000                 0.0000                 5.9337

                     31                     32                     33
                      A                      A                      A
 Frequencies --    970.6423               970.7727              1024.1228
 Red. masses --      1.2571                 1.2528                 2.3412
 Frc consts  --      0.6978                 0.6956                 1.4468
 IR Inten    --      0.0000                 0.0000                 0.0000

                     34                     35                     36
                      A                      A                      A
 Frequencies --   1027.0924              1128.8640              1160.5121
 Red. masses --      2.3356                 2.2008                 1.4460
 Frc consts  --      1.4517                 1.6524                 1.1474
 IR Inten    --      7.2327                 0.0000                 1.5353

                     37                     38                     39
                      A                      A                      A
 Frequencies --   1175.8204              1190.5591              1192.0650
 Red. masses --      1.3588                 1.3139                 1.0661
 Frc consts  --      1.1068                 1.0972                 0.8925
 IR Inten    --      6.6565                 1.4837                 0.0000

                     40                     41                     42
                      A                      A                      A
 Frequencies --   1213.5988              1290.8567              1295.7561
 Red. masses --      1.2219                 3.0028                 2.0346
 Frc consts  --      1.0603                 2.9481                 2.0127
 IR Inten    --      0.0000                 0.0000                 5.5573

                     43                     44                     45
                      A                      A                      A
 Frequencies --   1298.8343              1342.9924              1377.9833
 Red. masses --      1.4798                 3.2306                 3.1732
 Frc consts  --      1.4708                 3.4330                 3.5501
 IR Inten    --      0.0000                 4.6643                 3.9960

                     46                     47                     48
                      A                      A                      A
 Frequencies --   1415.2560              1420.3429              1427.5375
 Red. masses --      4.2031                 1.5496                 9.4908
 Frc consts  --      4.9601                 1.8419                11.3954
 IR Inten    --      1.2775                 0.0000                 0.0000

                     49                     50                     51
                      A                      A                      A
 Frequencies --   1487.3702              1490.3639              1519.9334
 Red. masses --      1.9198                 2.7052                 2.5681
 Frc consts  --      2.5024                 3.5403                 3.4956
 IR Inten    --      1.7192                 1.5450                 0.0000

                     52                     53                     54
                      A                      A                      A
 Frequencies --   1580.5683              1593.7126              1625.8089
 Red. masses --      4.9457                 7.2120                 5.0531
 Frc consts  --      7.2796                10.7926                 7.8695
 IR Inten    --      6.4155                 0.0000                 0.0000

                     55                     56                     57
                      A                      A                      A
 Frequencies --   1666.8411              1670.5752              3157.2408
 Red. masses --      5.9934                 5.6252                 1.0887
 Frc consts  --      9.8110                 9.2496                 6.3940
 IR Inten    --      0.0000                 5.3573                 8.8717

                     58                     59                     60
                      A                      A                      A
 Frequencies --   3158.8617              3161.9515              3162.6506
 Red. masses --      1.0906                 1.0854                 1.0860
 Frc consts  --      6.4120                 6.3934                 6.4001
 IR Inten    --      0.0000                 0.0000                11.4036

                     61                     62                     63
                      A                      A                      A
 Frequencies --   3166.3901              3167.1406              3179.6846
 Red. masses --      1.0875                 1.0886                 1.0934
 Frc consts  --      6.4239                 6.4335                 6.5129
 IR Inten    --      0.0004                 0.0000                 0.0000

                     64                     65                     66
                      A                      A                      A
 Frequencies --   3179.9379              3190.3120              3191.7682
 Red. masses --      1.0934                 1.1058                 1.0967
 Frc consts  --      6.5143                 6.6314                 6.5828
 IR Inten    --     54.7597                 0.0000                48.7067

 - Thermochemistry -
 -------------------
 Temperature   298.150 Kelvin.  Pressure   1.00000 Atm.
 Atom     1 has atomic number  6 and mass  12.00000

 Molecular mass:   178.07825 amu.
 Principal axes and moments of inertia in atomic units:
                           1         2         3
     Eigenvalues --   835.401343973.056084808.45742
           X            1.00000  -0.00000   0.00000
           Y            0.00000   1.00000   0.00000
           Z           -0.00000  -0.00000   1.00000
 This molecule is an asymmetric top.
 Rotational symmetry number  1.
 Warning -- assumption of classical behavior for rotation
           may cause significant error
 Rotational temperatures (Kelvin)      0.10368     0.02180     0.01801
 Rotational constants (GHZ):           2.16033     0.45425     0.37533
 Zero-point vibrational energy     507460.1 (Joules/Mol)
                                  121.28587 (Kcal/Mol)
 Warning -- explicit consideration of  14 degrees of freedom as
           vibrations may cause significant error
 Vibrational temperatures:    130.09   173.96   339.12   339.77   388.29
          (Kelvin)            514.13   559.53   570.19   691.98   699.72
                              731.58   771.34   852.25   889.94   924.82
                              953.81  1065.36  1071.17  1098.44  1108.50
                             1137.02  1183.56  1215.48  1250.21  1295.17
                             1327.29  1328.34  1342.03  1375.83  1383.40
                             1396.54  1396.73  1473.48  1477.76  1624.18
                             1669.72  1691.74  1712.95  1715.12  1746.10
                             1857.25  1864.30  1868.73  1932.27  1982.61
                             2036.24  2043.56  2053.91  2139.99  2144.30
                             2186.85  2274.09  2293.00  2339.18  2398.21
                             2403.59  4542.57  4544.90  4549.34  4550.35
                             4555.73  4556.81  4574.86  4575.22  4590.15
                             4592.24

 Zero-point correction=                           0.193281 (Hartree/Particle)
 Thermal correction to Energy=                    0.202791
 Thermal correction to Enthalpy=                  0.203735
 Thermal correction to Gibbs Free Energy=         0.158459
 Sum of electronic and zero-point Energies=           -539.529386
 Sum of electronic and thermal Energies=              -539.519876
 Sum of electronic and thermal Enthalpies=            -539.518932
 Sum of electronic and thermal Free Energies=         -539.564208

                     E (Thermal)             CV                S
                      KCal/Mol        Cal/Mol-Kelvin    Cal/Mol-Kelvin
 Total                  127.253             40.908             95.292
 Electronic               0.000              0.000              0.000
 Translational            0.889              2.981             41.438
 Rotational               0.889              2.981             31.146
 Vibrational            125.476             34.946             22.708
 Vibration     1          0.602              1.956              3.651
 Vibration     2          0.609              1.932              3.086
 Vibration     3          0.655              1.786              1.835
 Vibration     4          0.655              1.785              1.832
 Vibration     5          0.674              1.729              1.597
 Vibration     6          0.733              1.560              1.134
 Vibration     7          0.757              1.494              1.004
 Vibration     8          0.763              1.478              0.976
 Vibration     9          0.837              1.292              0.708
 Vibration    10          0.842              1.280              0.693
 Vibration    11          0.864              1.231              0.637
 Vibration    12          0.891              1.170              0.574
 Vibration    13          0.950              1.048              0.463
 Vibration    14          0.978              0.993              0.419

 Normal termination of Gaussian 16 at Wed Apr  3 17:04:58 2024.
