 Gaussian 16, Revision C.01,

 --------------------------------------------
 #p B3LYP/def2TZVP geom=connectivity opt freq
 --------------------------------------------

 ---------------------------------------------------------------
 Anthracene ground state optimization and frequency calculation.
 ---------------------------------------------------------------
 Symbolic Z-matrix:
 Charge =  0 Multiplicity = 1

 SCF Done:  E(RB3LYP) =  -539.720334085     A.U. after   22 cycles
 SCF Done:  E(RB3LYP) =  -539.722608073     A.U. after   17 cycles
 SCF Done:  E(RB3LYP) =  -539.722658451     A.U. after    8 cycles
 SCF Done:  E(RB3LYP) =  -539.722667145     A.U. after    8 cycles
 Optimization completed.
    -- Stationary point found.
 Normal termination of Gaussian 16 at Tue Mar 26 12:47:42 2024.

 --------------------------------------------------------------------
 #P Geom=AllCheck Guess=TCheck SCRF=Check GenChk RB3LYP/def2TZVP Freq
 --------------------------------------------------------------------

 Structure from the checkpoint file:  "Anthracene_n_1-1.chk"
 ---------------------------------------------------------------
 Anthracene ground state optimization and frequency calculation.
 ---------------------------------------------------------------
 Charge =  0 Multiplicity = 1

 SCF Done:  E(RB3LYP) =  -539.722667145     A.U. after    1 cycles
 Optimization completed.
 Normal termination of Gaussian 16 at Tue Mar 26 12:59:29 2024.
 Gaussian 16:  ES64L-G16RevC.01  3-Jul-2019

 ----------------------------------------------------------------------
 #p B3LYP/def2TZVP geom=check TD=(nstates=2, root=1) opt freq=savenorma
 lmodes
 ----------------------------------------------------------------------

 ----------------------------------------------------------------------
 Anthracene vertical excitation and optimization/frequency calculation.
 ----------------------------------------------------------------------
 Structure from the checkpoint file:  "Anthracene_n_1-2.chk"
 Charge =  0 Multiplicity = 1

 SCF Done:  E(RB3LYP) =  -539.722667145     A.U. after   15 cycles
 Total Energy, E(TD-HF/TD-DFT) =  -539.604842918
 SCF Done:  E(RB3LYP) =  -539.717433626     A.U. after   19 cycles
 Total Energy, E(TD-HF/TD-DFT) =  -539.612318303
 SCF Done:  E(RB3LYP) =  -539.714847387     A.U. after   18 cycles
 Total Energy, E(TD-HF/TD-DFT) =  -539.613080077
 SCF Done:  E(RB3LYP) =  -539.714590179     A.U. after    8 cycles
 Total Energy, E(TD-HF/TD-DFT) =  -539.613119650
 SCF Done:  E(RB3LYP) =  -539.714632999     A.U. after    7 cycles
 Total Energy, E(TD-HF/TD-DFT) =  -539.613122347
    -- Stationary point found.
 Normal termination of Gaussian 16 at Tue Mar 26 13:53:22 2024.

 ----------------------------------------------------------------------
 #P Geom=AllCheck Guess=TCheck SCRF=Check GenChk RB3LYP TD(FC,Read)/def
 2TZVP Freq
 ----------------------------------------------------------------------

 Structure from the checkpoint file:  "Anthracene_n_1-2.chk"
 ----------------------------------------------------------------------
 Anthracene vertical excitation and optimization/frequency calculation.
 ----------------------------------------------------------------------
 Charge =  0 Multiplicity = 1

                         Standard orientation:
 ---------------------------------------------------------------------
 Center     Atomic      Atomic             Coordinates (Angstroms)
 Number     Number       Type             X           Y           Z
 ---------------------------------------------------------------------
      1          6           0        3.688715    0.692137   -0.000000
      2          6           0        2.470882    1.394135    0.000000
      3          6           0        1.240031    0.719120    0.000000
      4          6           0        1.240032   -0.719120    0.000000
      5          6           0        2.470883   -1.394135   -0.000000
      6          6           0        3.688715   -0.692137   -0.000000
      7          6           0        0.000000    1.391969    0.000000
      8          6           0        0.000000   -1.391969    0.000001
      9          6           0       -1.240032   -0.719120    0.000000
     10          6           0       -1.240031    0.719120    0.000001
     11          6           0       -2.470882    1.394135   -0.000000
     12          1           0       -2.475485    2.477543    0.000000
     13          6           0       -3.688715    0.692137   -0.000001
     14          6           0       -3.688715   -0.692137   -0.000000
     15          6           0       -2.470883   -1.394135    0.000000
     16          1           0        0.000000    2.476836    0.000001
     17          1           0        4.622547    1.238949   -0.000000
     18          1           0        2.475485    2.477543    0.000000
     19          1           0        2.475485   -2.477544   -0.000001
     20          1           0        4.622548   -1.238949   -0.000001
     21          1           0        0.000000   -2.476837    0.000002
     22          1           0       -4.622547    1.238949   -0.000001
     23          1           0       -4.622548   -1.238949   -0.000001
     24          1           0       -2.475485   -2.477544    0.000000
 ---------------------------------------------------------------------

 SCF Done:  E(RB3LYP) =  -539.714632999     A.U. after    1 cycles

 Excitation energies and oscillator strengths:

 Excited State   1:      Singlet-A      2.7622 eV  448.85 nm  f=0.0540  <S**2>=0.000
      47 -> 48         0.70461
 This state for optimization and/or second-order correction.
 Total Energy, E(TD-HF/TD-DFT) =  -539.613122341
 Copying the excited state density for this state as the 1-particle RhoCI density.

 Excited State   2:      Singlet-A      3.7275 eV  332.62 nm  f=0.0000  <S**2>=0.000
      46 -> 48         0.49945
      47 -> 49        -0.49842

 The electronic state is 1-A.
 Alpha  occ. eigenvalues --  -10.18942 -10.18941 -10.18907 -10.18903 -10.18281
 Alpha  occ. eigenvalues --  -10.18279 -10.18223 -10.18222 -10.18222 -10.18221
 Alpha  occ. eigenvalues --  -10.18118 -10.18118 -10.18062 -10.18062  -0.88704
 Alpha  occ. eigenvalues --   -0.85729  -0.80567  -0.78702  -0.75395  -0.75000
 Alpha  occ. eigenvalues --   -0.69953  -0.65869  -0.61793  -0.60582  -0.59916
 Alpha  occ. eigenvalues --   -0.54753  -0.52899  -0.50917  -0.47000  -0.46968
 Alpha  occ. eigenvalues --   -0.45475  -0.45421  -0.42660  -0.41666  -0.41657
 Alpha  occ. eigenvalues --   -0.40813  -0.39967  -0.38084  -0.37117  -0.35682
 Alpha  occ. eigenvalues --   -0.34258  -0.33369  -0.31172  -0.30529  -0.26257
 Alpha  occ. eigenvalues --   -0.25438  -0.19568
 Alpha virt. eigenvalues --   -0.08292  -0.02311  -0.01152   0.01768   0.04823
 Alpha virt. eigenvalues --    0.05039   0.05211   0.05464   0.07721   0.07983
 Alpha virt. eigenvalues --    0.09705   0.09779   0.11016   0.12001   0.12453

 Mulliken charges:
               1
     1  C   -0.102874
     2  C   -0.187236
     3  C    0.156540
     4  C    0.156539
     5  C   -0.187241
     6  C   -0.102873
     7  C   -0.249770
     8  C   -0.249778
     9  C    0.156539
    10  C    0.156540
    11  C   -0.187236
    12  H    0.102484
    13  C   -0.102874
    14  C   -0.102873
    15  C   -0.187241
    16  H    0.092466
    17  H    0.109742
    18  H    0.102484
    19  H    0.102485
    20  H    0.109742
    21  H    0.092467
    22  H    0.109742
    23  H    0.109742
    24  H    0.102485
 Sum of Mulliken charges =  -0.00000

 Dipole moment (field-independent basis, Debye):
    X=              0.0000    Y=              0.0001    Z=             -0.0000  Tot=              0.0001
 Quadrupole moment (field-independent basis, Debye-Ang):
   XX=            -71.2106   YY=            -72.4396   ZZ=            -88.2869
   XY=              0.0000   XZ=              0.0000   YZ=              0.0000

  Exact polarizability:     524.079       0.000     171.083      -0.000      -0.000      79.408
 Approx polarizability:     505.228      -0.000     329.743       0.000      -0.000     132.565

                      1                      2                      3
                      A                      A                      A
 Frequencies --     85.6051               110.3382               232.1955
 Red. masses --      4.9506                 3.7417                 4.5669
 Frc consts  --      0.0214                 0.0268                 0.1451
 IR Inten    --      1.3665                 0.0000                 0.0000

                      4                      5                      6
                      A                      A                      A
 Frequencies --    233.7373               251.3118               326.2029
 Red. masses --      4.4659                 3.4021                 3.3403
 Frc consts  --      0.1438                 0.1266                 0.2094
 IR Inten    --      1.0079                 0.0000                 1.2489

                      7                      8                      9
                      A                      A                      A
 Frequencies --    387.5266               394.1131               421.8509
 Red. masses --      4.7219                 6.7650                 2.3159
 Frc consts  --      0.4178                 0.6191                 0.2428
 IR Inten    --      0.0000                 0.0000                19.7991

                     10                     11                     12
                      A                      A                      A
 Frequencies --    441.6659               510.9668               527.2248
 Red. masses --      3.2810                 3.7510                 6.1797
 Frc consts  --      0.3771                 0.5770                 1.0121
 IR Inten    --      0.0000                 0.0000                 0.0000

                     13                     14                     15
                      A                      A                      A
 Frequencies --    534.9310               601.6746               608.2044
 Red. masses --      2.8755                 6.9094                 6.8224
 Frc consts  --      0.4848                 1.4737                 1.4869
 IR Inten    --      0.0000                27.2785                 0.0000

                     16                     17                     18
                      A                      A                      A
 Frequencies --    667.5761               717.2932               720.6303
 Red. masses --      5.9138                 1.1573                 1.2032
 Frc consts  --      1.5528                 0.3508                 0.3681
 IR Inten    --      1.9891               106.8948                 0.0000

                     19                     20                     21
                      A                      A                      A
 Frequencies --    723.9458               748.2484               753.9190
 Red. masses --      3.5112                 2.4829                 5.6788
 Frc consts  --      1.0842                 0.8190                 1.9018
 IR Inten    --      0.0000                 0.0000                 0.0000

                     22                     23                     24
                      A                      A                      A
 Frequencies --    788.1951               824.1275               839.0609
 Red. masses --      1.5099                 3.6396                 1.6078
 Frc consts  --      0.5527                 1.4564                 0.6669
 IR Inten    --      0.0000               101.3930                 0.0000

                     25                     26                     27
                      A                      A                      A
 Frequencies --    846.7000               882.1989               891.9930
 Red. masses --      1.3433                 1.4141                 1.5782
 Frc consts  --      0.5674                 0.6484                 0.7398
 IR Inten    --     23.0822                 0.0000                30.5812

                     28                     29                     30
                      A                      A                      A
 Frequencies --    894.1333               906.6317               910.2732
 Red. masses --      1.8055                 1.2597                 1.2568
 Frc consts  --      0.8505                 0.6101                 0.6136
 IR Inten    --      0.0011                 0.0000                 0.0000

                     31                     32                     33
                      A                      A                      A
 Frequencies --    913.2160               920.9183              1046.8924
 Red. masses --      5.6638                 4.9818                 2.1951
 Frc consts  --      2.7830                 2.4893                 1.4175
 IR Inten    --      0.0622                 0.0000                 6.3265

                     34                     35                     36
                      A                      A                      A
 Frequencies --   1049.3232              1088.6027              1125.2946
 Red. masses --      2.4888                 2.0343                 1.5764
 Frc consts  --      1.6146                 1.4204                 1.1761
 IR Inten    --      0.0000                 0.0000                 4.9648

                     37                     38                     39
                      A                      A                      A
 Frequencies --   1175.4478              1187.0785              1213.1514
 Red. masses --      1.1372                 1.0835                 1.3628
 Frc consts  --      0.9257                 0.8995                 1.1817
 IR Inten    --      0.0173                 0.0000                 0.0000

                     40                     41                     42
                      A                      A                      A
 Frequencies --   1215.6400              1268.2363              1290.8272
 Red. masses --      1.3520                 2.4558                 7.7786
 Frc consts  --      1.1771                 2.3273                 7.6364
 IR Inten    --      6.8505                 0.0000                13.5755

                     43                     44                     45
                      A                      A                      A
 Frequencies --   1292.9730              1307.7337              1361.4721
 Red. masses --      1.7194                 1.5558                 9.8243
 Frc consts  --      1.6936                 1.5676                10.7293
 IR Inten    --      0.0000                 4.3211                 1.3242

                     46                     47                     48
                      A                      A                      A
 Frequencies --   1415.3698              1420.9526              1440.0277
 Red. masses --     10.7002                 1.5935                 5.0058
 Frc consts  --     12.6294                 1.8956                 6.1160
 IR Inten    --      0.0000                 0.0000                 0.5426

                     49                     50                     51
                      A                      A                      A
 Frequencies --   1465.3068              1479.9551              1525.3337
 Red. masses --      2.0059                 1.9070                 3.4131
 Frc consts  --      2.5376                 2.4610                 4.6788
 IR Inten    --     13.8236                67.6457                 0.0000

                     52                     53                     54
                      A                      A                      A
 Frequencies --   1530.9052              1561.4726              1573.4585
 Red. masses --      3.0807                 4.5959                 3.8785
 Frc consts  --      4.2540                 6.6022                 5.6575
 IR Inten    --      0.0000                 0.0000                18.7686

                     55                     56                     57
                      A                      A                      A
 Frequencies --   1592.4314              1601.6323              3155.4696
 Red. masses --      5.7557                 5.5927                 1.0884
 Frc consts  --      8.5994                 8.4528                 6.3848
 IR Inten    --      0.0000                 1.4733                12.3651

                     58                     59                     60
                      A                      A                      A
 Frequencies --   3156.7104              3166.5914              3167.2592
 Red. masses --      1.0883                 1.0857                 1.0862
 Frc consts  --      6.3898                 6.4144                 6.4196
 IR Inten    --      0.0000                 0.0000                19.8962

                     61                     62                     63
                      A                      A                      A
 Frequencies --   3169.7838              3170.9134              3183.2772
 Red. masses --      1.0874                 1.0877                 1.0896
 Frc consts  --      6.4373                 6.4438                 6.5051
 IR Inten    --     22.5209                 0.0000                 0.0000

                     64                     65                     66
                      A                      A                      A
 Frequencies --   3183.6278              3198.1166              3198.6574
 Red. masses --      1.0897                 1.0962                 1.0964
 Frc consts  --      6.5076                 6.6058                 6.6093
 IR Inten    --     34.2713                60.1294                 0.0000

 - Thermochemistry -
 -------------------
 Temperature   298.150 Kelvin.  Pressure   1.00000 Atm.
 Atom     1 has atomic number  6 and mass  12.00000

 Molecular mass:   178.07825 amu.
 Principal axes and moments of inertia in atomic units:
                           1         2         3
     Eigenvalues --   824.597224038.243594862.84081
           X            1.00000   0.00000   0.00000
           Y           -0.00000   1.00000   0.00000
           Z           -0.00000  -0.00000   1.00000
 This molecule is an asymmetric top.
 Rotational symmetry number  1.
 Warning -- assumption of classical behavior for rotation
           may cause significant error
 Rotational temperatures (Kelvin)      0.10504     0.02145     0.01781
 Rotational constants (GHZ):           2.18863     0.44691     0.37113
 Zero-point vibrational energy     500018.3 (Joules/Mol)
                                  119.50725 (Kcal/Mol)
 Warning -- explicit consideration of  15 degrees of freedom as
           vibrations may cause significant error
 Vibrational temperatures:    123.17   158.75   334.08   336.30   361.58
          (Kelvin)            469.33   557.56   567.04   606.95   635.46
                              735.17   758.56   769.65   865.68   875.07
                              960.49  1032.02  1036.83  1041.60  1076.56
                             1084.72  1134.04  1185.74  1207.22  1218.21
                             1269.29  1283.38  1286.46  1304.44  1309.68
                             1313.91  1325.00  1506.24  1509.74  1566.26
                             1619.05  1691.21  1707.94  1745.45  1749.03
                             1824.71  1857.21  1860.30  1881.54  1958.85
                             2036.40  2044.43  2071.88  2108.25  2129.33
                             2194.62  2202.63  2246.61  2263.86  2291.15
                             2304.39  4540.02  4541.80  4556.02  4556.98
                             4560.61  4562.24  4580.03  4580.53  4601.38
                             4602.15

 Zero-point correction=                           0.190447 (Hartree/Particle)
 Thermal correction to Energy=                    0.200360
 Thermal correction to Enthalpy=                  0.201304
 Thermal correction to Gibbs Free Energy=         0.155290
 Sum of electronic and zero-point Energies=           -539.422675
 Sum of electronic and thermal Energies=              -539.412763
 Sum of electronic and thermal Enthalpies=            -539.411818
 Sum of electronic and thermal Free Energies=         -539.457832

                     E (Thermal)             CV                S
                      KCal/Mol        Cal/Mol-Kelvin    Cal/Mol-Kelvin
 Total                  125.728             42.475             96.844
 Electronic               0.000              0.000              0.000
 Translational            0.889              2.981             41.438
 Rotational               0.889              2.981             31.160
 Vibrational            123.950             36.514             24.246
 Vibration     1          0.601              1.959              3.758
 Vibration     2          0.606              1.941              3.263
 Vibration     3          0.653              1.792              1.862
 Vibration     4          0.654              1.789              1.850
 Vibration     5          0.663              1.761              1.721
 Vibration     6          0.710              1.623              1.279
 Vibration     7          0.756              1.497              1.010
 Vibration     8          0.761              1.483              0.985
 Vibration     9          0.784              1.423              0.886
 Vibration    10          0.801              1.379              0.821
 Vibration    11          0.866              1.226              0.631
 Vibration    12          0.882              1.190              0.593
 Vibration    13          0.890              1.173              0.576
 Vibration    14          0.960              1.028              0.447
 Vibration    15          0.967              1.014              0.436

 Optimization completed.
    -- Stationary point found.
 Normal termination of Gaussian 16 at Tue Mar 26 14:28:27 2024.
