 Gaussian 16, Revision C.01,

 --------------------------------------------
 #p PBE1PBE/STO-3G geom=connectivity opt freq
 --------------------------------------------

 Ground state geometry optimization and frequency calculation of peryle
 ne.
 ----------------------------------------------------------------------
 Symbolic Z-matrix:
 Charge =  0 Multiplicity = 1

 SCF Done:  E(RPBE1PBE) =  -759.214366043     A.U. after   13 cycles
 SCF Done:  E(RPBE1PBE) =  -759.230639586     A.U. after   12 cycles
 SCF Done:  E(RPBE1PBE) =  -759.231727948     A.U. after   11 cycles
 SCF Done:  E(RPBE1PBE) =  -759.231774703     A.U. after    9 cycles
 SCF Done:  E(RPBE1PBE) =  -759.231775836     A.U. after    8 cycles
 Optimization completed.
    -- Stationary point found.
 Normal termination of Gaussian 16 at Mon Apr 22 03:57:26 2024.

 --------------------------------------------------------------------
 #P Geom=AllCheck Guess=TCheck SCRF=Check GenChk RPBE1PBE/STO-3G Freq
 --------------------------------------------------------------------

 ----------------------------------------------------------------------
 Ground state geometry optimization and frequency calculation of peryle
 ne.
 ----------------------------------------------------------------------
 Charge =  0 Multiplicity = 1

 SCF Done:  E(RPBE1PBE) =  -759.231775836     A.U. after    1 cycles
 Optimization completed.
 Normal termination of Gaussian 16 at Mon Apr 22 03:57:59 2024.

 ----------------------------------------------------------------------
 #p PBE1PBE/STO-3G TD=(NStates=2, Root=1) geom=check guess=read opt fre
 q=savenormalmodes
 ----------------------------------------------------------------------

 One point excitation calculation for the perylene molecule, followed b
 y the excited state geometry optimization.
 ----------------------------------------------------------------------
 Structure from the checkpoint file:  "p_pbe0_sto_1-2.chk"
 Charge =  0 Multiplicity = 1

 SCF Done:  E(RPBE1PBE) =  -759.231775836     A.U. after    1 cycles
 Total Energy, E(TD-HF/TD-DFT) =  -759.095786878
 SCF Done:  E(RPBE1PBE) =  -759.224804223     A.U. after   12 cycles
 Total Energy, E(TD-HF/TD-DFT) =  -759.103659059
 SCF Done:  E(RPBE1PBE) =  -759.224042403     A.U. after   11 cycles
 Total Energy, E(TD-HF/TD-DFT) =  -759.104118070
 SCF Done:  E(RPBE1PBE) =  -759.223961489     A.U. after    8 cycles
 Total Energy, E(TD-HF/TD-DFT) =  -759.104136871
    -- Stationary point found.
 Normal termination of Gaussian 16 at Mon Apr 22 04:00:12 2024.

 ----------------------------------------------------------------------
 #P Geom=AllCheck Guess=TCheck SCRF=Check GenChk RPBE1PBE TD(FC,Read)/S
 TO-3G Freq
 ----------------------------------------------------------------------

 ----------------------------------------------------------------------
 One point excitation calculation for the perylene molecule, followed b
 y the excited state geometry optimization.
 ----------------------------------------------------------------------
 Charge =  0 Multiplicity = 1

                         Standard orientation:
 ---------------------------------------------------------------------
 Center     Atomic      Atomic             Coordinates (Angstroms)
 Number     Number       Type             X           Y           Z
 ---------------------------------------------------------------------
      1          6           0       -2.880115   -2.456262    0.000027
      2          6           0       -1.486071   -2.470407    0.000023
      3          6           0       -0.727973   -1.253168    0.000006
      4          6           0       -1.437563   -0.000009   -0.000000
      5          6           0       -2.880234    0.000005   -0.000000
      6          6           0       -3.580839   -1.243223    0.000013
      7          6           0        0.727973   -1.253172   -0.000006
      8          6           0       -0.727962    1.253141   -0.000006
      9          6           0        0.727962    1.253139    0.000006
     10          6           0        1.437563   -0.000009    0.000000
     11          6           0        1.486021    2.470391    0.000023
     12          6           0       -1.486021    2.470391   -0.000023
     13          6           0       -2.880069    2.456274   -0.000027
     14          6           0       -3.580817    1.243251   -0.000013
     15          1           0       -4.676099    1.233513   -0.000014
     16          1           0       -3.431173    3.403170   -0.000041
     17          1           0       -3.431246   -3.403143    0.000041
     18          1           0       -4.676122   -1.233469    0.000013
     19          6           0        1.486070   -2.470405   -0.000023
     20          6           0        2.880118   -2.456259   -0.000027
     21          6           0        3.580841   -1.243223   -0.000013
     22          6           0        2.880233    0.000007    0.000000
     23          1           0        3.431243   -3.403144   -0.000041
     24          1           0        4.676123   -1.233463   -0.000013
     25          6           0        2.880068    2.456274    0.000027
     26          1           0        3.431172    3.403170    0.000041
     27          6           0        3.580816    1.243251    0.000013
     28          1           0        4.676099    1.233514    0.000014
     29          1           0       -0.962486   -3.430110    0.000038
     30          1           0        0.962495   -3.430114   -0.000038
     31          1           0       -0.962409    3.430085   -0.000037
     32          1           0        0.962406    3.430083    0.000037
 ---------------------------------------------------------------------

 SCF Done:  E(RPBE1PBE) =  -759.223961489     A.U. after    1 cycles

 Excitation energies and oscillator strengths:

 Excited State   1:      Singlet-A      3.2606 eV  380.25 nm  f=0.5200  <S**2>=0.000
      66 -> 67        -0.70962
      66 <- 67         0.11456
 This state for optimization and/or second-order correction.
 Total Energy, E(TD-HF/TD-DFT) =  -759.104136873
 Copying the excited state density for this state as the 1-particle RhoCI density.

 Excited State   2:      Singlet-A      4.3810 eV  283.00 nm  f=0.0000  <S**2>=0.000
      64 -> 67         0.29680
      65 -> 67         0.54075
      66 -> 68        -0.16300
      66 -> 69         0.29355

 The electronic state is 1-A.
 Alpha  occ. eigenvalues --  -10.06426 -10.06407 -10.06358 -10.06330 -10.06307
 Alpha  occ. eigenvalues --  -10.06298 -10.06222 -10.06207 -10.04977 -10.04977
 Alpha  occ. eigenvalues --  -10.04977 -10.04977 -10.04806 -10.04806 -10.04801
 Alpha  occ. eigenvalues --  -10.04801 -10.04785 -10.04784 -10.04780 -10.04779
 Alpha  occ. eigenvalues --   -0.86581  -0.83792  -0.80920  -0.78720  -0.78002
 Alpha  occ. eigenvalues --   -0.72553  -0.72187  -0.71608  -0.71132  -0.65943
 Alpha  occ. eigenvalues --   -0.62090  -0.60262  -0.59642  -0.58313  -0.56044
 Alpha  occ. eigenvalues --   -0.51505  -0.50415  -0.50069  -0.47419  -0.46513
 Alpha  occ. eigenvalues --   -0.45066  -0.44011  -0.42474  -0.42065  -0.39112
 Alpha  occ. eigenvalues --   -0.38355  -0.37961  -0.37391  -0.37384  -0.36464
 Alpha  occ. eigenvalues --   -0.35375  -0.34237  -0.34057  -0.33796  -0.32063
 Alpha  occ. eigenvalues --   -0.30980  -0.30411  -0.27746  -0.27395  -0.27283
 Alpha  occ. eigenvalues --   -0.26942  -0.20136  -0.20071  -0.19883  -0.19805
 Alpha  occ. eigenvalues --   -0.11915
 Alpha virt. eigenvalues --    0.00205   0.08898   0.09004   0.09256   0.09595
 Alpha virt. eigenvalues --    0.18154   0.18721   0.23269   0.28336   0.34212
 Alpha virt. eigenvalues --    0.34482   0.36451   0.37170   0.37737   0.38770

 Mulliken charges:
               1
     1  C   -0.087983
     2  C   -0.079964
     3  C   -0.004866
     4  C   -0.002455
     5  C   -0.006788
     6  C   -0.078734
     7  C   -0.004866
     8  C   -0.004868
     9  C   -0.004868
    10  C   -0.002455
    11  C   -0.079962
    12  C   -0.079962
    13  C   -0.087983
    14  C   -0.078734
    15  H    0.084905
    16  H    0.086829
    17  H    0.086829
    18  H    0.084905
    19  C   -0.079964
    20  C   -0.087983
    21  C   -0.078734
    22  C   -0.006788
    23  H    0.086829
    24  H    0.084905
    25  C   -0.087983
    26  H    0.086829
    27  C   -0.078734
    28  H    0.084905
    29  H    0.084436
    30  H    0.084436
    31  H    0.084435
    32  H    0.084435
 Sum of Mulliken charges =  -0.00000

 Dipole moment (field-independent basis, Debye):
    X=             -0.0000    Y=              0.0000    Z=              0.0000  Tot=              0.0000
 Quadrupole moment (field-independent basis, Debye-Ang):
   XX=            -93.7343   YY=            -93.4920   ZZ=           -110.0953
   XY=              0.0000   XZ=              0.0000   YZ=              0.0000

  Exact polarizability:     344.689       0.000     296.572       0.000      -0.000      20.757
 Approx polarizability:     546.407      -0.001     370.719       0.000       0.000      24.747

                      1                      2                      3
                      A                      A                      A
 Frequencies --     52.1542                90.3431               161.4994
 Red. masses --      4.6794                 4.6279                 3.5364
 Frc consts  --      0.0075                 0.0223                 0.0543
 IR Inten    --      0.0000                 0.3241                 0.0000

                      4                      5                      6
                      A                      A                      A
 Frequencies --    180.6351               201.5928               247.1186
 Red. masses --      4.3082                 4.0188                 3.3977
 Frc consts  --      0.0828                 0.0962                 0.1222
 IR Inten    --      2.7390                 0.0000                 0.0000

                      7                      8                      9
                      A                      A                      A
 Frequencies --    254.0682               285.2130               366.2594
 Red. masses --      5.0275                 4.9760                 6.3172
 Frc consts  --      0.1912                 0.2385                 0.4993
 IR Inten    --      9.3558                 0.0000                 0.0000

                     10                     11                     12
                      A                      A                      A
 Frequencies --    382.1314               401.6154               448.7087
 Red. masses --      6.9597                 4.2916                 5.1219
 Frc consts  --      0.5988                 0.4078                 0.6076
 IR Inten    --      0.0000                 0.0000                 0.0000

                     13                     14                     15
                      A                      A                      A
 Frequencies --    477.0574               496.3696               508.2922
 Red. masses --      4.7438                 3.8381                 3.4892
 Frc consts  --      0.6361                 0.5572                 0.5311
 IR Inten    --      3.2741                 0.0001                 0.0000

                     16                     17                     18
                      A                      A                      A
 Frequencies --    510.9605               541.9639               545.3682
 Red. masses --      3.9603                 7.3299                 4.3145
 Frc consts  --      0.6092                 1.2685                 0.7561
 IR Inten    --      0.0000                 9.6493                 1.5930

                     19                     20                     21
                      A                      A                      A
 Frequencies --    556.6836               578.2522               598.7308
 Red. masses --      6.2504                 6.4341                 5.7432
 Frc consts  --      1.1412                 1.2676                 1.2130
 IR Inten    --      0.0000                 0.0000                 1.3417

                     22                     23                     24
                      A                      A                      A
 Frequencies --    638.0671               648.7781               670.1327
 Red. masses --      3.6171                 7.6668                 4.6294
 Frc consts  --      0.8676                 1.9013                 1.2249
 IR Inten    --      0.0000                 0.0000                 0.0000

                     25                     26                     27
                      A                      A                      A
 Frequencies --    679.9736               781.5116               783.6555
 Red. masses --      2.1587                 1.2361                 1.5619
 Frc consts  --      0.5881                 0.4448                 0.5651
 IR Inten    --      0.0000                 0.0003                63.7030

                     28                     29                     30
                      A                      A                      A
 Frequencies --    789.0224               791.5098               800.4979
 Red. masses --      1.4326                 6.0925                 1.6767
 Frc consts  --      0.5255                 2.2488                 0.6330
 IR Inten    --      0.0000               115.6441                 0.0000

                     31                     32                     33
                      A                      A                      A
 Frequencies --    836.5937               839.5441               845.1925
 Red. masses --      3.4209                 5.0970                 5.2405
 Frc consts  --      1.4107                 2.1167                 2.2057
 IR Inten    --     28.2736                 0.2067                 0.0000

                     34                     35                     36
                      A                      A                      A
 Frequencies --    865.0061               875.3233               915.6224
 Red. masses --      6.3805                 5.8985                 1.4132
 Frc consts  --      2.8128                 2.6627                 0.6981
 IR Inten    --     10.9125                 0.0000                 0.0000

                     37                     38                     39
                      A                      A                      A
 Frequencies --    915.7609               935.9338               938.1454
 Red. masses --      1.3156                 1.4854                 1.4514
 Frc consts  --      0.6500                 0.7666                 0.7526
 IR Inten    --      0.0000                 0.0000                 3.2681

                     40                     41                     42
                      A                      A                      A
 Frequencies --    996.3982              1035.7482              1038.8627
 Red. masses --      6.1223                 1.2783                 1.2661
 Frc consts  --      3.5812                 0.8080                 0.8051
 IR Inten    --      0.0000                 0.0000                 0.0000

                     43                     44                     45
                      A                      A                      A
 Frequencies --   1039.2014              1041.8527              1063.7881
 Red. masses --      1.2761                 1.2696                 3.9202
 Frc consts  --      0.8119                 0.8119                 2.6138
 IR Inten    --      0.0000                 0.0257                 0.0000

                     46                     47                     48
                      A                      A                      A
 Frequencies --   1098.3670              1154.8655              1178.6299
 Red. masses --      6.3477                 2.5675                 1.6347
 Frc consts  --      4.5119                 2.0175                 1.3380
 IR Inten    --     22.2925                 0.0000                 1.9095

                     49                     50                     51
                      A                      A                      A
 Frequencies --   1195.9302              1200.9245              1228.1944
 Red. masses --      1.8307                 1.4912                 1.7171
 Frc consts  --      1.5427                 1.2671                 1.5261
 IR Inten    --      0.0000                 1.1448                 0.0000

                     52                     53                     54
                      A                      A                      A
 Frequencies --   1236.8098              1263.5683              1264.9025
 Red. masses --      1.3863                 1.5302                 1.2617
 Frc consts  --      1.2494                 1.4395                 1.1894
 IR Inten    --      3.0304                 0.0004                 0.0000

                     55                     56                     57
                      A                      A                      A
 Frequencies --   1288.2782              1299.6005              1312.4952
 Red. masses --      1.2263                 1.9015                 1.8038
 Frc consts  --      1.1992                 1.8921                 1.8308
 IR Inten    --      0.0000                 0.1885                86.5613

                     58                     59                     60
                      A                      A                      A
 Frequencies --   1334.4031              1394.4894              1409.9544
 Red. masses --      1.8416                 2.0783                 3.9842
 Frc consts  --      1.9320                 2.3812                 4.6667
 IR Inten    --      0.0000                 0.0000                 6.2224

                     61                     62                     63
                      A                      A                      A
 Frequencies --   1418.6026              1455.5656              1472.1304
 Red. masses --     10.4878                 5.2860                 5.7517
 Frc consts  --     12.4353                 6.5984                 7.3441
 IR Inten    --      0.8332                 0.5600                 0.0000

                     64                     65                     66
                      A                      A                      A
 Frequencies --   1484.6261              1484.7700              1498.8369
 Red. masses --      2.4579                 2.8236                 2.3306
 Frc consts  --      3.1919                 3.6675                 3.0847
 IR Inten    --      0.0001                24.5804                20.2596

                     67                     68                     69
                      A                      A                      A
 Frequencies --   1509.6041              1565.2215              1573.4213
 Red. masses --      6.4782                 2.4143                 2.2955
 Frc consts  --      8.6982                 3.4850                 3.3482
 IR Inten    --      0.0000                 9.4338                 0.0000

                     70                     71                     72
                      A                      A                      A
 Frequencies --   1605.5270              1616.4134              1683.9749
 Red. masses --      3.7880                 2.6932                 3.5475
 Frc consts  --      5.7530                 4.1460                 5.9271
 IR Inten    --      0.0000                 4.5556                 0.0004

                     73                     74                     75
                      A                      A                      A
 Frequencies --   1684.3838              1690.7467              1707.1390
 Red. masses --      4.4997                 5.4515                 6.0949
 Frc consts  --      7.5217                 9.1817                10.4654
 IR Inten    --     21.7212                 0.0000                50.6617

                     76                     77                     78
                      A                      A                      A
 Frequencies --   1714.6598              1718.9040              1748.3656
 Red. masses --      4.5995                 5.6924                 7.0740
 Frc consts  --      7.9675                 9.9095                12.7403
 IR Inten    --     83.1912                 0.0000                 0.0000

                     79                     80                     81
                      A                      A                      A
 Frequencies --   3497.8046              3499.5153              3500.2914
 Red. masses --      1.0889                 1.0897                 1.0894
 Frc consts  --      7.8490                 7.8624                 7.8644
 IR Inten    --     81.4797                11.2045                 0.0000

                     82                     83                     84
                      A                      A                      A
 Frequencies --   3500.9138              3513.7721              3514.5694
 Red. masses --      1.0902                 1.0960                 1.0960
 Frc consts  --      7.8723                 7.9728                 7.9765
 IR Inten    --      0.0000               103.6808                 0.0059

                     85                     86                     87
                      A                      A                      A
 Frequencies --   3515.0380              3515.8782              3528.2818
 Red. masses --      1.0964                 1.0963                 1.1015
 Frc consts  --      7.9817                 7.9847                 8.0787
 IR Inten    --     28.4161                 0.0005                15.5236

                     88                     89                     90
                      A                      A                      A
 Frequencies --   3528.3447              3531.8045              3533.0923
 Red. masses --      1.1018                 1.0979                 1.0975
 Frc consts  --      8.0818                 8.0685                 8.0716
 IR Inten    --      1.1408               100.6342                 0.0222

 - Thermochemistry -
 -------------------
 Temperature   298.150 Kelvin.  Pressure   1.00000 Atm.
 Atom     1 has atomic number  6 and mass  12.00000

 Molecular mass:   252.09390 amu.
 Principal axes and moments of inertia in atomic units:
                           1         2         3
     Eigenvalues --  2972.397235474.819098447.21632
           X            1.00000  -0.00000   0.00000
           Y            0.00000   1.00000   0.00000
           Z           -0.00000  -0.00000   1.00000
 This molecule is an asymmetric top.
 Rotational symmetry number  1.
 Warning -- assumption of classical behavior for rotation
           may cause significant error
 Rotational temperatures (Kelvin)      0.02914     0.01582     0.01025
 Rotational constants (GHZ):           0.60717     0.32964     0.21365
 Zero-point vibrational energy     707739.2 (Joules/Mol)
                                  169.15372 (Kcal/Mol)
 Warning -- explicit consideration of  21 degrees of freedom as
           vibrations may cause significant error
 Vibrational temperatures:     75.04   129.98   232.36   259.89   290.05
          (Kelvin)            355.55   365.55   410.36   526.97   549.80
                              577.84   645.59   686.38   714.17   731.32
                              735.16   779.77   784.66   800.94   831.98
                              861.44   918.04   933.45   964.17   978.33
                             1124.42  1127.51  1135.23  1138.81  1151.74
                             1203.67  1207.92  1216.04  1244.55  1259.39
                             1317.38  1317.58  1346.60  1349.78  1433.59
                             1490.21  1494.69  1495.18  1498.99  1530.55
                             1580.31  1661.59  1695.79  1720.68  1727.86
                             1767.10  1779.49  1817.99  1819.91  1853.55
                             1869.84  1888.39  1919.91  2006.36  2028.61
                             2041.05  2094.23  2118.07  2136.05  2136.25
                             2156.49  2171.98  2252.00  2263.80  2310.00
                             2325.66  2422.86  2423.45  2432.61  2456.19
                             2467.01  2473.12  2515.51  5032.56  5035.02
                             5036.14  5037.03  5055.53  5056.68  5057.36
                             5058.56  5076.41  5076.50  5081.48  5083.33

 Zero-point correction=                           0.269564 (Hartree/Particle)
 Thermal correction to Energy=                    0.282134
 Thermal correction to Enthalpy=                  0.283078
 Thermal correction to Gibbs Free Energy=         0.230706
 Sum of electronic and zero-point Energies=           -758.834573
 Sum of electronic and thermal Energies=              -758.822003
 Sum of electronic and thermal Enthalpies=            -758.821059
 Sum of electronic and thermal Free Energies=         -758.873431

                     E (Thermal)             CV                S
                      KCal/Mol        Cal/Mol-Kelvin    Cal/Mol-Kelvin
 Total                  177.042             54.561            110.226
 Electronic               0.000              0.000              0.000
 Translational            0.889              2.981             42.474
 Rotational               0.889              2.981             33.285
 Vibrational            175.264             48.599             34.466
 Vibration     1          0.596              1.977              4.734
 Vibration     2          0.602              1.956              3.653
 Vibration     3          0.622              1.890              2.532
 Vibration     4          0.630              1.866              2.322
 Vibration     5          0.638              1.838              2.119
 Vibration     6          0.661              1.768              1.751
 Vibration     7          0.665              1.756              1.702
 Vibration     8          0.683              1.701              1.502
 Vibration     9          0.739              1.542              1.095
 Vibration    10          0.752              1.508              1.031
 Vibration    11          0.767              1.467              0.957
 Vibration    12          0.808              1.364              0.800
 Vibration    13          0.834              1.301              0.718
 Vibration    14          0.852              1.258              0.667
 Vibration    15          0.863              1.232              0.638
 Vibration    16          0.866              1.226              0.631
 Vibration    17          0.897              1.157              0.561
 Vibration    18          0.901              1.150              0.554
 Vibration    19          0.912              1.125              0.530
 Vibration    20          0.935              1.078              0.489
 Vibration    21          0.957              1.034              0.452

 Optimization completed.
    -- Stationary point found.
 Normal termination of Gaussian 16 at Mon Apr 22 04:01:45 2024.
 Gaussian 16:  ES64L-G16RevC.01  3-Jul-2019

 ----------------------------------------------------------------------
 #p PB1PBE/STO-3G Freq(ReadFC, FC, ReadFCHT) NoSymm geom=check guess=re
 ad
 ----------------------------------------------------------------------
 QPErr --- A syntax error was detected in the input line.
 #p PB1PBE/STO-3G Freq(ReadFC, FC, ReadFC
    '
 Last state= "GCL"
 TCursr=      3880 LCursr=         3
 Error termination via Lnk1e in /apps/gaussian/g16-c01-avx2/g16/l1.exe at Mon Apr 22 04:01:45 2024.
 Job cpu time:       0 days  0 hours  0 minutes  0.2 seconds.
 Elapsed time:       0 days  0 hours  0 minutes  0.0 seconds.
