 Gaussian 16, Revision C.01,
 Gaussian 16:  ES64L-G16RevC.01  3-Jul-2019

 ---------------------------------------------------------------
 # CIS/STO-3G CIS=(nstates=2, Root=1) geom=check Density=Current
 ---------------------------------------------------------------

 HF/STO-3G for formaldehyde, calculating the first two excited states a
 nd optimizing its geometry.
 ----------------------------------------------------------------------
 Structure from the checkpoint file:  "/rds/general/user/rk820/home/dibs-g16/fc_ht/formaldehyde/formaldehyde_es_STO-3G.chk"
 Charge =  0 Multiplicity = 1

                         Standard orientation:
 ---------------------------------------------------------------------
 Center     Atomic      Atomic             Coordinates (Angstroms)
 Number     Number       Type             X           Y           Z
 ---------------------------------------------------------------------
      1          6           0       -0.000000    0.000000   -0.533822
      2          1           0       -0.000000   -0.926149   -1.129445
      3          1           0        0.000000    0.926149   -1.129445
      4          8           0        0.000000   -0.000000    0.682727
 ---------------------------------------------------------------------

 SCF Done:  E(RHF) =  -112.354346976     A.U. after    9 cycles

 Excitation energies and oscillator strengths:

 Excited State   1:      Singlet-A2     4.1086 eV  301.77 nm  f=0.0000  <S**2>=0.000
       5 ->  9         0.14173
       8 ->  9         0.69544
 This state for optimization and/or second-order correction.
 Total Energy, E(TD-HF/TD-DFT) =  -112.203359298
 Copying the excited state density for this state as the 1-particle RhoCI density.

 Excited State   2:      Singlet-B1     9.1087 eV  136.12 nm  f=0.0108  <S**2>=0.000
       6 ->  9         0.70710

 The electronic state is 1-A1.
 Alpha  occ. eigenvalues --  -20.31277 -11.12510  -1.33757  -0.80784  -0.63301
 Alpha  occ. eigenvalues --   -0.54562  -0.44330  -0.35440
 Alpha virt. eigenvalues --    0.28203   0.62894   0.73458   0.91320

 Mulliken charges:
               1
     1  C   -0.137363
     2  H    0.084634
     3  H    0.084634
     4  O   -0.031905
 Sum of Mulliken charges =   0.00000

 Dipole moment (field-independent basis, Debye):
    X=             -0.0000    Y=             -0.0000    Z=             -0.5768  Tot=              0.5768
 Quadrupole moment (field-independent basis, Debye-Ang):
   XX=            -11.3811   YY=             -9.4786   ZZ=            -10.9573
   XY=             -0.0000   XZ=              0.0000   YZ=              0.0000

 Normal termination of Gaussian 16 at Thu Feb 22 14:21:13 2024.
