 Gaussian 16, Revision C.01,
 Gaussian 16:  ES64L-G16RevC.01  3-Jul-2019

 ----------------------------------------------------------------
 # CIS/STO-3G CIS=(nstates=2) geom=check Density=Current Opt Freq
 ----------------------------------------------------------------

 HF/STO-3G for formaldehyde, calculating the first two excited states a
 nd optimizing its geometry, followed by a frequency calculation.
 ----------------------------------------------------------------------
 Structure from the checkpoint file:  "/rds/general/user/rk820/home/dibs-g16/fc_ht/formaldehyde/formaldehyde_es_STO-3G_freq.chk"
 Charge =  0 Multiplicity = 1

 SCF Done:  E(RHF) =  -112.354346976     A.U. after    9 cycles
 Total Energy, E(TD-HF/TD-DFT) =  -112.203359298
 SCF Done:  E(RHF) =  -112.340141790     A.U. after   10 cycles
 Total Energy, E(TD-HF/TD-DFT) =  -112.217344501
 SCF Done:  E(RHF) =  -112.340178789     A.U. after    8 cycles
 Total Energy, E(TD-HF/TD-DFT) =  -112.217907738
 SCF Done:  E(RHF) =  -112.339910873     A.U. after    8 cycles
 Total Energy, E(TD-HF/TD-DFT) =  -112.217930338
 Optimization completed.
    -- Stationary point found.
 Normal termination of Gaussian 16 at Thu Feb 22 02:57:23 2024.

 ----------------------------------------------------------------------
 #N Geom=AllCheck Guess=TCheck SCRF=Check GenChk RTD(FC,Read)/STO-3G Fr
 eq
 ----------------------------------------------------------------------

 ----------------------------------------------------------------------
 HF/STO-3G for formaldehyde, calculating the first two excited states a
 nd optimizing its geometry, followed by a frequency calculation.
 ----------------------------------------------------------------------
 Charge =  0 Multiplicity = 1

                         Standard orientation:
 ---------------------------------------------------------------------
 Center     Atomic      Atomic             Coordinates (Angstroms)
 Number     Number       Type             X           Y           Z
 ---------------------------------------------------------------------
      1          6           0       -0.000000   -0.000000   -0.586373
      2          1           0       -0.000000   -0.941350   -1.113320
      3          1           0        0.000000    0.941350   -1.113320
      4          8           0        0.000000    0.000000    0.718110
 ---------------------------------------------------------------------

 SCF Done:  E(RHF) =  -112.339910873     A.U. after    1 cycles

 Excitation energies and oscillator strengths:

 Excited State   1:      Singlet-A2     3.3193 eV  373.53 nm  f=0.0000  <S**2>=0.000
       5 ->  9         0.11911
       8 ->  9         0.70054
 This state for optimization and/or second-order correction.
 Total Energy, E(TD-HF/TD-DFT) =  -112.217930338
 Copying the excited state density for this state as the 1-particle RhoCI density.

 Excited State   2:      Singlet-B1     7.5562 eV  164.08 nm  f=0.0079  <S**2>=0.000
       6 ->  9         0.70959

 The electronic state is 1-A1.
 Alpha  occ. eigenvalues --  -20.29400 -11.10591  -1.28057  -0.81617  -0.62523
 Alpha  occ. eigenvalues --   -0.51730  -0.39560  -0.36047
 Alpha virt. eigenvalues --    0.25316   0.63179   0.77168   0.78869

 Mulliken charges:
               1
     1  C   -0.152600
     2  H    0.077496
     3  H    0.077496
     4  O   -0.002393
 Sum of Mulliken charges =  -0.00000

 Dipole moment (field-independent basis, Debye):
    X=              0.0000    Y=             -0.0000    Z=             -0.3508  Tot=              0.3508
 Quadrupole moment (field-independent basis, Debye-Ang):
   XX=            -11.4365   YY=             -9.5028   ZZ=            -11.0860
   XY=              0.0000   XZ=             -0.0000   YZ=              0.0000

  Exact polarizability:       2.080       0.000       6.453      -0.000       0.000      11.174
 Approx polarizability:       1.861       0.000       4.734      -0.000       0.000      14.847

 ******    1 imaginary frequencies (negative Signs) ******

                      1                      2                      3
                     B1                     B2                     A1
 Frequencies --   -492.1368              1091.7729              1568.3167
 Red. masses --      1.3237                 1.2930                 1.1625
 Frc consts  --      0.1889                 0.9080                 1.6846
 IR Inten    --    134.4936                 8.5414                 3.8095

                      4                      5                      6
                     A1                     A1                     B2
 Frequencies --   1807.4194              3616.6937              3782.1285
 Red. masses --      5.3530                 1.0527                 1.1188
 Frc consts  --     10.3030                 8.1126                 9.4288
 IR Inten    --     26.0538                40.2585                 3.7949

 - Thermochemistry -
 -------------------
 Temperature   298.150 Kelvin.  Pressure   1.00000 Atm.
 Atom     1 has atomic number  6 and mass  12.00000

 Molecular mass:    30.01056 amu.
 Principal axes and moments of inertia in atomic units:
                           1         2         3
     Eigenvalues --     6.37845  52.53235  58.91080
           X           -0.00000   0.00000   1.00000
           Y            0.00000   1.00000  -0.00000
           Z            1.00000  -0.00000   0.00000
 This molecule is an asymmetric top.
 Rotational symmetry number  2.
 Rotational temperatures (Kelvin)     13.57914     1.64877     1.47026
 Rotational constants (GHZ):         282.94333    34.35485    30.63515
    1 imaginary frequencies ignored.
 Zero-point vibrational energy      70976.4 (Joules/Mol)
                                   16.96377 (Kcal/Mol)
 Vibrational temperatures:   1570.82  2256.46  2600.47  5203.62  5441.64
          (Kelvin)

 Zero-point correction=                           0.027033 (Hartree/Particle)
 Thermal correction to Energy=                    0.029897
 Thermal correction to Enthalpy=                  0.030841
 Thermal correction to Gibbs Free Energy=         0.005916
 Sum of electronic and zero-point Energies=           -112.190897
 Sum of electronic and thermal Energies=              -112.188033
 Sum of electronic and thermal Enthalpies=            -112.187089
 Sum of electronic and thermal Free Energies=         -112.212014

                     E (Thermal)             CV                S
                      KCal/Mol        Cal/Mol-Kelvin    Cal/Mol-Kelvin
 Total                   18.761              6.332             52.459
 Electronic               0.000              0.000              0.000
 Translational            0.889              2.981             36.130
 Rotational               0.889              2.981             16.253
 Vibrational             16.983              0.371              0.076

 Optimization completed.
    -- Stationary point found.
 Normal termination of Gaussian 16 at Thu Feb 22 02:57:27 2024.
