 Gaussian 16, Revision C.01,
 Gaussian 16:  ES64L-G16RevC.01  3-Jul-2019

 -------------------------------------------
 # CIS/STO-3G geom=check Density=Current Opt
 -------------------------------------------

 HF/STO-3G for formaldehyde, calculating the first two excited states a
 nd optimizing its geometry.
 ----------------------------------------------------------------------
 Structure from the checkpoint file:  "/rds/general/user/rk820/home/dibs-g16/fc_ht/formaldehyde/formaldehyde_es_STO-3G_opt.chk"
 Charge =  0 Multiplicity = 1

 SCF Done:  E(RHF) =  -112.354346976     A.U. after    9 cycles
 SCF Done:  E(RHF) =  -112.340131383     A.U. after   10 cycles
 SCF Done:  E(RHF) =  -112.339971049     A.U. after    8 cycles
 SCF Done:  E(RHF) =  -112.339703855     A.U. after    8 cycles

 Excitation energies and oscillator strengths:

 Excited State   1:      Singlet-A2     3.4171 eV  362.83 nm  f=0.0000  <S**2>=0.000
       5 ->  9         0.11521
       8 ->  9         0.69766
 This state for optimization and/or second-order correction.
 Total Energy, E(CIS/TDA) =  -112.214126372
 Copying the excited state density for this state as the 1-particle RhoCI density.

 Excited State   2:      Singlet-B1     7.9423 eV  156.11 nm  f=0.0087  <S**2>=0.000
       6 ->  9         0.70395

 Excited State   3:      Singlet-A1    10.4208 eV  118.98 nm  f=0.2865  <S**2>=0.000
       6 -> 12         0.24220
       7 ->  9         0.65076

 Optimization completed.
    -- Stationary point found.

                         Standard orientation:
 ---------------------------------------------------------------------
 Center     Atomic      Atomic             Coordinates (Angstroms)
 Number     Number       Type             X           Y           Z
 ---------------------------------------------------------------------
      1          6           0       -0.000000   -0.000000   -0.586894
      2          1           0       -0.000000   -0.942788   -1.110296
      3          1           0        0.000000    0.942788   -1.110296
      4          8           0        0.000000    0.000000    0.717745
 ---------------------------------------------------------------------

 The electronic state is 1-A1.
 Alpha  occ. eigenvalues --  -20.29375 -11.10570  -1.28043  -0.81599  -0.62584
 Alpha  occ. eigenvalues --   -0.51691  -0.39541  -0.36046
 Alpha virt. eigenvalues --    0.25322   0.63144   0.77368   0.78797

 Mulliken charges:
               1
     1  C   -0.148133
     2  H    0.080004
     3  H    0.080004
     4  O   -0.011875
 Sum of Mulliken charges =  -0.00000

 Dipole moment (field-independent basis, Debye):
    X=              0.0000    Y=             -0.0000    Z=             -0.4335  Tot=              0.4335
 Quadrupole moment (field-independent basis, Debye-Ang):
   XX=            -11.4181   YY=             -9.4840   ZZ=            -11.0753
   XY=              0.0000   XZ=             -0.0000   YZ=              0.0000

 Normal termination of Gaussian 16 at Thu Feb 22 14:28:21 2024.
