 Gaussian 16, Revision C.01,

 --------------------------------------------
 #p CAM-B3LYP/TZVP geom=connectivity opt freq
 --------------------------------------------

 Investigation of Azulene step 1: ground state optimization and frequen
 cy calculation.
 ----------------------------------------------------------------------
 Symbolic Z-matrix:
 Charge =  0 Multiplicity = 1

 SCF Done:  E(RCAM-B3LYP) =  -385.718197356     A.U. after   17 cycles
 SCF Done:  E(RCAM-B3LYP) =  -385.722591656     A.U. after   16 cycles
 SCF Done:  E(RCAM-B3LYP) =  -385.723173138     A.U. after   12 cycles
 SCF Done:  E(RCAM-B3LYP) =  -385.723697033     A.U. after   15 cycles
 SCF Done:  E(RCAM-B3LYP) =  -385.723734147     A.U. after   11 cycles
 SCF Done:  E(RCAM-B3LYP) =  -385.723739025     A.U. after   11 cycles
 Optimization completed.
    -- Stationary point found.
 Normal termination of Gaussian 16 at Wed Mar  6 12:42:27 2024.

 --------------------------------------------------------------------
 #P Geom=AllCheck Guess=TCheck SCRF=Check GenChk RCAM-B3LYP/TZVP Freq
 --------------------------------------------------------------------

 ----------------------------------------------------------------------
 Investigation of Azulene step 1: ground state optimization and frequen
 cy calculation.
 ----------------------------------------------------------------------
 Charge =  0 Multiplicity = 1

 SCF Done:  E(RCAM-B3LYP) =  -385.723739025     A.U. after    1 cycles
 Optimization completed.
 Normal termination of Gaussian 16 at Wed Mar  6 12:42:54 2024.
 Gaussian 16:  ES64L-G16RevC.01  3-Jul-2019

 ----------------------------------------------------------------------
 #p CAM-B3LYP/TZVP TD=(nstates=2, Root=1) geom=check opt freq=savenorma
 lmodes
 ----------------------------------------------------------------------

 Azulene vertical excitation and optimization, frequency calculation fo
 r investigation of the S1 PES.
 ----------------------------------------------------------------------
 Structure from the checkpoint file:  "Azulene1-2.chk"
 Charge =  0 Multiplicity = 1

 SCF Done:  E(RCAM-B3LYP) =  -385.723739025     A.U. after   15 cycles
 Total Energy, E(TD-HF/TD-DFT) =  -385.634259562
 SCF Done:  E(RCAM-B3LYP) =  -385.714721204     A.U. after   15 cycles
 Total Energy, E(TD-HF/TD-DFT) =  -385.645453559
 SCF Done:  E(RCAM-B3LYP) =  -385.709506533     A.U. after   13 cycles
 Total Energy, E(TD-HF/TD-DFT) =  -385.646830621
 SCF Done:  E(RCAM-B3LYP) =  -385.709906329     A.U. after   10 cycles
 Total Energy, E(TD-HF/TD-DFT) =  -385.646898996
 SCF Done:  E(RCAM-B3LYP) =  -385.709825205     A.U. after    9 cycles
 Total Energy, E(TD-HF/TD-DFT) =  -385.646903398
    -- Stationary point found.
 Normal termination of Gaussian 16 at Wed Mar  6 12:46:24 2024.

 ----------------------------------------------------------------------
 #P Geom=AllCheck Guess=TCheck SCRF=Check GenChk RCAM-B3LYP TD(FC,Read)
 /TZVP Freq
 ----------------------------------------------------------------------

 ----------------------------------------------------------------------
 Azulene vertical excitation and optimization, frequency calculation fo
 r investigation of the S1 PES.
 ----------------------------------------------------------------------
 Charge =  0 Multiplicity = 1

                         Standard orientation:
 ---------------------------------------------------------------------
 Center     Atomic      Atomic             Coordinates (Angstroms)
 Number     Number       Type             X           Y           Z
 ---------------------------------------------------------------------
      1          6           0        2.511975   -0.000000    0.000000
      2          6           0        1.900637   -1.261701    0.000007
      3          6           0        0.567212   -1.599504    0.000006
      4          6           0        1.900636    1.261704    0.000001
      5          6           0       -0.530935   -0.694991   -0.000006
      6          6           0        0.567212    1.599504    0.000000
      7          6           0       -0.530935    0.694989   -0.000005
      8          1           0        3.594103    0.000003   -0.000001
      9          1           0        2.590114   -2.100107    0.000014
     10          1           0        0.324104   -2.654621    0.000010
     11          1           0        2.590114    2.100108    0.000003
     12          1           0        0.324099    2.654619   -0.000000
     13          6           0       -1.915242   -1.116656   -0.000029
     14          1           0       -2.234172   -2.149072   -0.000033
     15          6           0       -2.744040    0.000001    0.000031
     16          1           0       -3.821848   -0.000002    0.000068
     17          6           0       -1.915244    1.116655   -0.000014
     18          1           0       -2.234172    2.149073   -0.000004
 ---------------------------------------------------------------------

 SCF Done:  E(RCAM-B3LYP) =  -385.709825205     A.U. after    1 cycles

 Excitation energies and oscillator strengths:

 Excited State   1:      Singlet-A      1.7122 eV  724.13 nm  f=0.0032  <S**2>=0.000
      34 -> 35         0.70532
 This state for optimization and/or second-order correction.
 Total Energy, E(TD-HF/TD-DFT) =  -385.646903362
 Copying the excited state density for this state as the 1-particle RhoCI density.

 Excited State   2:      Singlet-A      3.5545 eV  348.81 nm  f=0.0030  <S**2>=0.000
      33 -> 35         0.48453
      34 -> 36         0.51339

 The electronic state is 1-A.
 Alpha  occ. eigenvalues --  -10.28226 -10.28221 -10.28219 -10.26240 -10.26238
 Alpha  occ. eigenvalues --  -10.25745 -10.25691 -10.23827 -10.22712 -10.22708
 Alpha  occ. eigenvalues --   -0.96662  -0.91680  -0.87730  -0.82597  -0.77571
 Alpha  occ. eigenvalues --   -0.74389  -0.69255  -0.63123  -0.62605  -0.59135
 Alpha  occ. eigenvalues --   -0.57356  -0.53237  -0.53219  -0.47079  -0.46961
 Alpha  occ. eigenvalues --   -0.46677  -0.45422  -0.43290  -0.41623  -0.41130
 Alpha  occ. eigenvalues --   -0.40362  -0.36623  -0.29204  -0.23621
 Alpha virt. eigenvalues --   -0.05440  -0.00509   0.07613   0.09981   0.11438
 Alpha virt. eigenvalues --    0.11876   0.12890   0.13492   0.14810   0.15134
 Alpha virt. eigenvalues --    0.16895   0.17212   0.18141   0.18357   0.21053

 Mulliken charges:
               1
     1  C    0.002847
     2  C   -0.209027
     3  C    0.020525
     4  C   -0.209026
     5  C   -0.089493
     6  C    0.020523
     7  C   -0.089492
     8  H    0.142279
     9  H    0.123245
    10  H    0.139676
    11  H    0.123246
    12  H    0.139676
    13  C   -0.173468
    14  H    0.105524
    15  C   -0.103798
    16  H    0.124707
    17  C   -0.173468
    18  H    0.105524
 Sum of Mulliken charges =  -0.00000

 Dipole moment (field-independent basis, Debye):
    X=              1.9814    Y=             -0.0000    Z=              0.0001  Tot=              1.9814
 Quadrupole moment (field-independent basis, Debye-Ang):
   XX=            -52.5938   YY=            -51.3311   ZZ=            -65.0386
   XY=             -0.0000   XZ=             -0.0002   YZ=              0.0000

  Exact polarizability:     163.507       0.000     121.865      -0.000       0.000      57.756
 Approx polarizability:     266.003       0.000     167.772       0.000       0.000      76.694

                      1                      2                      3
                      A                      A                      A
 Frequencies --    119.1724               192.8841               279.2576
 Red. masses --      3.9910                 3.2488                 3.5001
 Frc consts  --      0.0334                 0.0712                 0.1608
 IR Inten    --      0.6540                 0.0000                 7.4480

                      4                      5                      6
                      A                      A                      A
 Frequencies --    340.7624               397.1057               405.2831
 Red. masses --      4.1284                 6.9056                 3.0770
 Frc consts  --      0.2824                 0.6416                 0.2978
 IR Inten    --      0.7087                 0.0250                 0.0000

                      7                      8                      9
                      A                      A                      A
 Frequencies --    505.2855               514.0681               579.3286
 Red. masses --      2.2008                 6.0326                 3.0091
 Frc consts  --      0.3311                 0.9393                 0.5950
 IR Inten    --     30.4598                 0.1312                 0.3498

                     10                     11                     12
                      A                      A                      A
 Frequencies --    687.6598               690.0584               692.9835
 Red. masses --      5.5059                 1.1429                 2.8419
 Frc consts  --      1.5340                 0.3206                 0.8041
 IR Inten    --      0.0001                38.5560                 0.0000

                     13                     14                     15
                      A                      A                      A
 Frequencies --    737.9141               774.3600               784.3272
 Red. masses --      1.3244                 1.4043                 5.0812
 Frc consts  --      0.4249                 0.4961                 1.8417
 IR Inten    --     89.2719                 0.0000                 0.4368

                     16                     17                     18
                      A                      A                      A
 Frequencies --    825.3212               874.1278               890.1537
 Red. masses --      1.3282                 1.6364                 4.9201
 Frc consts  --      0.5331                 0.7367                 2.2970
 IR Inten    --      4.1375                 0.0000                 1.5044

                     19                     20                     21
                      A                      A                      A
 Frequencies --    893.9242               931.9487               958.6771
 Red. masses --      1.4791                 5.8306                 2.8714
 Frc consts  --      0.6964                 2.9837                 1.5549
 IR Inten    --      1.1685                 0.0506                 1.2936

                     22                     23                     24
                      A                      A                      A
 Frequencies --    998.0963              1003.9013              1060.0789
 Red. masses --      1.3511                 1.3350                 1.3906
 Frc consts  --      0.7930                 0.7927                 0.9207
 IR Inten    --      0.5865                 0.0000                 0.1285

                     25                     26                     27
                      A                      A                      A
 Frequencies --   1102.5032              1105.8559              1189.1352
 Red. masses --      2.2237                 1.4305                 2.0554
 Frc consts  --      1.5925                 1.0307                 1.7124
 IR Inten    --      0.0067                18.1545                 0.6641

                     28                     29                     30
                      A                      A                      A
 Frequencies --   1252.4002              1257.5722              1271.0799
 Red. masses --      2.2233                 1.7563                 1.5416
 Frc consts  --      2.0546                 1.6365                 1.4675
 IR Inten    --      3.7930                 0.2943                 1.2752

                     31                     32                     33
                      A                      A                      A
 Frequencies --   1293.1262              1375.8482              1425.3441
 Red. masses --      1.2258                 1.7522                 2.4173
 Frc consts  --      1.2077                 1.9542                 2.8934
 IR Inten    --      7.1568                 1.0426                27.7252

                     34                     35                     36
                      A                      A                      A
 Frequencies --   1452.0072              1485.3174              1506.2405
 Red. masses --      4.0359                 1.6668                 1.7099
 Frc consts  --      5.0133                 2.1666                 2.2857
 IR Inten    --      2.5033                 0.1457                 5.7588

                     37                     38                     39
                      A                      A                      A
 Frequencies --   1573.1493              1617.1577              1639.4660
 Red. masses --      2.9487                 4.9421                 5.9245
 Frc consts  --      4.2995                 7.6149                 9.3823
 IR Inten    --     52.1231                11.1566                 5.0036

                     40                     41                     42
                      A                      A                      A
 Frequencies --   1916.1623              3163.2793              3166.5909
 Red. masses --     10.5144                 1.0856                 1.0871
 Frc consts  --     22.7457                 6.4000                 6.4226
 IR Inten    --    173.2839                 5.4716                 9.2820

                     43                     44                     45
                      A                      A                      A
 Frequencies --   3196.4768              3198.0744              3207.2882
 Red. masses --      1.0883                 1.0902                 1.0925
 Frc consts  --      6.5518                 6.5695                 6.6211
 IR Inten    --      1.9604                22.9953                18.1959

                     46                     47                     48
                      A                      A                      A
 Frequencies --   3236.2207              3239.9307              3268.7729
 Red. masses --      1.0902                 1.0931                 1.1021
 Frc consts  --      6.7273                 6.7606                 6.9383
 IR Inten    --      0.0495                 6.0112                 1.5704

 - Thermochemistry -
 -------------------
 Temperature   298.150 Kelvin.  Pressure   1.00000 Atm.
 Atom     1 has atomic number  6 and mass  12.00000

 Molecular mass:   128.06260 amu.
 Principal axes and moments of inertia in atomic units:
                           1         2         3
     Eigenvalues --   619.684121452.790952072.47508
           X            1.00000   0.00000  -0.00000
           Y           -0.00000   1.00000   0.00000
           Z            0.00000  -0.00000   1.00000
 This molecule is an asymmetric top.
 Rotational symmetry number  1.
 Warning -- assumption of classical behavior for rotation
           may cause significant error
 Rotational temperatures (Kelvin)      0.13977     0.05962     0.04179
 Rotational constants (GHZ):           2.91236     1.24226     0.87081
 Zero-point vibrational energy     384453.9 (Joules/Mol)
                                   91.88670 (Kcal/Mol)
 Warning -- explicit consideration of   9 degrees of freedom as
           vibrations may cause significant error
 Vibrational temperatures:    171.46   277.52   401.79   490.28   571.35
          (Kelvin)            583.11   726.99   739.63   833.52   989.39
                              992.84   997.05  1061.69  1114.13  1128.47
                             1187.45  1257.67  1280.73  1286.16  1340.87
                             1379.32  1436.04  1444.39  1525.22  1586.26
                             1591.08  1710.90  1801.92  1809.37  1828.80
                             1860.52  1979.54  2050.75  2089.11  2137.04
                             2167.14  2263.41  2326.73  2358.83  2756.93
                             4551.25  4556.02  4599.02  4601.32  4614.57
                             4656.20  4661.54  4703.04

 Zero-point correction=                           0.146431 (Hartree/Particle)
 Thermal correction to Energy=                    0.153786
 Thermal correction to Enthalpy=                  0.154731
 Thermal correction to Gibbs Free Energy=         0.114638
 Sum of electronic and zero-point Energies=           -385.500473
 Sum of electronic and thermal Energies=              -385.493117
 Sum of electronic and thermal Enthalpies=            -385.492173
 Sum of electronic and thermal Free Energies=         -385.532265

                     E (Thermal)             CV                S
                      KCal/Mol        Cal/Mol-Kelvin    Cal/Mol-Kelvin
 Total                   96.502             30.356             84.382
 Electronic               0.000              0.000              0.000
 Translational            0.889              2.981             40.455
 Rotational               0.889              2.981             29.013
 Vibrational             94.725             24.395             14.913
 Vibration     1          0.609              1.933              3.114
 Vibration     2          0.635              1.850              2.200
 Vibration     3          0.680              1.712              1.538
 Vibration     4          0.720              1.594              1.209
 Vibration     5          0.764              1.476              0.973
 Vibration     6          0.770              1.459              0.943
 Vibration     7          0.861              1.238              0.645
 Vibration     8          0.869              1.219              0.624
 Vibration     9          0.936              1.076              0.487

 Optimization completed.
    -- Stationary point found.
 Normal termination of Gaussian 16 at Wed Mar  6 12:47:37 2024.
