 Gaussian 16, Revision C.01,
 Gaussian 16:  ES64L-G16RevC.01  3-Jul-2019

 ---------------------------------
 # opt hf/sto-3g geom=connectivity
 ---------------------------------

 ---------------------
 ch2o ground state opt
 ---------------------
 Symbolic Z-matrix:
 Charge =  0 Multiplicity = 1

 SCF Done:  E(RHF) =  -112.354346975     A.U. after    9 cycles

 The electronic state is 1-A1.
 Alpha  occ. eigenvalues --  -20.31277 -11.12510  -1.33757  -0.80784  -0.63301
 Alpha  occ. eigenvalues --   -0.54562  -0.44330  -0.35440
 Alpha virt. eigenvalues --    0.28203   0.62895   0.73458   0.91320

 Mulliken charges:
               1
     1  C    0.074970
     2  H    0.056496
     3  H    0.056496
     4  O   -0.187963
 Sum of Mulliken charges =   0.00000

 Dipole moment (field-independent basis, Debye):
    X=             -0.0000    Y=             -0.0000    Z=             -1.5366  Tot=              1.5366
 Quadrupole moment (field-independent basis, Debye-Ang):
   XX=            -10.4250   YY=            -10.5468   ZZ=            -11.3099
   XY=              0.0000   XZ=              0.0000   YZ=              0.0000

 Optimization completed.
    -- Stationary point found.

                         Standard orientation:
 ---------------------------------------------------------------------
 Center     Atomic      Atomic             Coordinates (Angstroms)
 Number     Number       Type             X           Y           Z
 ---------------------------------------------------------------------
      1          6           0        0.000000    0.000000   -0.533822
      2          1           0        0.000000    0.926149   -1.129445
      3          1           0       -0.000000   -0.926149   -1.129445
      4          8           0       -0.000000   -0.000000    0.682727
 ---------------------------------------------------------------------

 Normal termination of Gaussian 16 at Thu Feb 22 16:42:41 2024.
