 Gaussian 16, Revision C.01,
 Gaussian 16:  ES64L-G16RevC.01  3-Jul-2019

 --------------------------------------------------------------------
 #p CAM-B3LYP/TZVP TD=(nstates=2) geom=check Density=Current opt freq
 --------------------------------------------------------------------

 HF/STO-3G for formaldehyde, calculating the first two excited states a
 nd optimizing its geometry, followed by a vibrational analysis.
 ----------------------------------------------------------------------
 Structure from the checkpoint file:  "/rds/general/user/rk820/home/dibs-g16/fc_ht/formaldehyde/formaldehyde_es_CAM-B3LYP_freq.chk"
 Charge =  0 Multiplicity = 1

 SCF Done:  E(RCAM-B3LYP) =  -114.497765900     A.U. after   12 cycles
 Total Energy, E(TD-HF/TD-DFT) =  -114.355214935
 SCF Done:  E(RCAM-B3LYP) =  -114.492778301     A.U. after   11 cycles
 Total Energy, E(TD-HF/TD-DFT) =  -114.359875588
 SCF Done:  E(RCAM-B3LYP) =  -114.487590745     A.U. after   11 cycles
 Total Energy, E(TD-HF/TD-DFT) =  -114.360907678
 SCF Done:  E(RCAM-B3LYP) =  -114.487593151     A.U. after    8 cycles
 Total Energy, E(TD-HF/TD-DFT) =  -114.360919569
 SCF Done:  E(RCAM-B3LYP) =  -114.487696602     A.U. after    7 cycles
 Total Energy, E(TD-HF/TD-DFT) =  -114.360921470
 Optimization completed.
    -- Stationary point found.
 Normal termination of Gaussian 16 at Thu Feb 22 03:20:24 2024.

 ----------------------------------------------------------------------
 #P Geom=AllCheck Guess=TCheck SCRF=Check GenChk RCAM-B3LYP TD(FC,Read)
 /TZVP Freq
 ----------------------------------------------------------------------

 ----------------------------------------------------------------------
 HF/STO-3G for formaldehyde, calculating the first two excited states a
 nd optimizing its geometry, followed by a vibrational analysis.
 ----------------------------------------------------------------------
 Charge =  0 Multiplicity = 1

                         Standard orientation:
 ---------------------------------------------------------------------
 Center     Atomic      Atomic             Coordinates (Angstroms)
 Number     Number       Type             X           Y           Z
 ---------------------------------------------------------------------
      1          6           0        0.000000    0.000000   -0.577293
      2          1           0       -0.000000   -0.952107   -1.105209
      3          1           0        0.000000    0.952107   -1.105209
      4          8           0       -0.000000   -0.000000    0.709272
 ---------------------------------------------------------------------

 SCF Done:  E(RCAM-B3LYP) =  -114.487696602     A.U. after    1 cycles

 Excitation energies and oscillator strengths:

 Excited State   1:      Singlet-A2     3.4497 eV  359.40 nm  f=0.0000  <S**2>=0.000
       8 ->  9         0.70544
 This state for optimization and/or second-order correction.
 Total Energy, E(TD-HF/TD-DFT) =  -114.360921452
 Copying the excited state density for this state as the 1-particle RhoCI density.

 Excited State   2:      Singlet-B2     8.3862 eV  147.84 nm  f=0.0454  <S**2>=0.000
       8 -> 10         0.68328
       8 -> 11         0.17512

 The electronic state is 1-A1.
 Alpha  occ. eigenvalues --  -19.22371 -10.35935  -1.10891  -0.73030  -0.57675
 Alpha  occ. eigenvalues --   -0.51350  -0.44947  -0.34663
 Alpha virt. eigenvalues --   -0.02405   0.09407   0.14508   0.14711   0.23301
 Alpha virt. eigenvalues --    0.25120   0.31099   0.44562   0.47912   0.50727
 Alpha virt. eigenvalues --    0.51599   0.55770   0.65926   0.77555   1.21167

 Mulliken charges:
               1
     1  C   -0.220046
     2  H    0.169234
     3  H    0.169234
     4  O   -0.118421
 Sum of Mulliken charges =  -0.00000

 Dipole moment (field-independent basis, Debye):
    X=              0.0000    Y=             -0.0000    Z=             -1.6658  Tot=              1.6658
 Quadrupole moment (field-independent basis, Debye-Ang):
   XX=            -13.9022   YY=            -10.1933   ZZ=            -12.1723
   XY=             -0.0000   XZ=             -0.0000   YZ=              0.0000

  Exact polarizability:      12.823       0.000      13.037       0.000      -0.000      20.197
 Approx polarizability:      10.036       0.000      13.699      -0.000       0.000      28.689

 ******    1 imaginary frequencies (negative Signs) ******

                      1                      2                      3
                     B1                     B2                     A1
 Frequencies --   -386.7708               892.2876              1317.5977
 Red. masses --      1.3269                 1.3070                 1.1422
 Frc consts  --      0.1170                 0.6131                 1.1683
 IR Inten    --    160.5857                 1.4933                41.8725

                      4                      5                      6
                     A1                     A1                     B2
 Frequencies --   1427.2801              3069.0589              3178.4237
 Red. masses --      6.2617                 1.0397                 1.1148
 Frc consts  --      7.5156                 5.7700                 6.6355
 IR Inten    --      0.2584                23.0528                 7.5924

 - Thermochemistry -
 -------------------
 Temperature   298.150 Kelvin.  Pressure   1.00000 Atm.
 Atom     1 has atomic number  6 and mass  12.00000

 Molecular mass:    30.01056 amu.
 Principal axes and moments of inertia in atomic units:
                           1         2         3
     Eigenvalues --     6.52506  51.23789  57.76295
           X           -0.00000   0.00000   1.00000
           Y            0.00000   1.00000  -0.00000
           Z            1.00000  -0.00000   0.00000
 This molecule is an asymmetric top.
 Rotational symmetry number  2.
 Rotational temperatures (Kelvin)     13.27405     1.69043     1.49947
 Rotational constants (GHZ):         276.58623    35.22278    31.24392
    1 imaginary frequencies ignored.
 Zero-point vibrational energy      59123.3 (Joules/Mol)
                                   14.13081 (Kcal/Mol)
 Vibrational temperatures:   1283.80  1895.73  2053.54  4415.69  4573.04
          (Kelvin)

 Zero-point correction=                           0.022519 (Hartree/Particle)
 Thermal correction to Energy=                    0.025424
 Thermal correction to Enthalpy=                  0.026368
 Thermal correction to Gibbs Free Energy=         0.001402
 Sum of electronic and zero-point Energies=           -114.338403
 Sum of electronic and thermal Energies=              -114.335497
 Sum of electronic and thermal Enthalpies=            -114.334553
 Sum of electronic and thermal Free Energies=         -114.359520

                     E (Thermal)             CV                S
                      KCal/Mol        Cal/Mol-Kelvin    Cal/Mol-Kelvin
 Total                   15.954              6.709             52.546
 Electronic               0.000              0.000              0.000
 Translational            0.889              2.981             36.130
 Rotational               0.889              2.981             16.231
 Vibrational             14.176              0.747              0.185

 Optimization completed.
    -- Stationary point found.
 Normal termination of Gaussian 16 at Thu Feb 22 03:20:46 2024.
