 Gaussian 16, Revision C.01,
 Gaussian 16:  ES64L-G16RevC.01  3-Jul-2019

 -------------------------------------------------------------------
 # CIS/STO-3G CIS=(nstates=2, Root=1) geom=check Density=Current Opt
 -------------------------------------------------------------------

 HF/STO-3G for formaldehyde, calculating the first two excited states a
 nd optimizing its geometry.
 ----------------------------------------------------------------------
 Structure from the checkpoint file:  "/rds/general/user/rk820/home/dibs-g16/fc_ht/formaldehyde/test1.chk"
 Charge =  0 Multiplicity = 1

 SCF Done:  E(RHF) =  -112.354346976     A.U. after    9 cycles
 Total Energy, E(TD-HF/TD-DFT) =  -112.203359298
 SCF Done:  E(RHF) =  -112.340141790     A.U. after   10 cycles
 Total Energy, E(TD-HF/TD-DFT) =  -112.217344501
 SCF Done:  E(RHF) =  -112.340178789     A.U. after    8 cycles
 Total Energy, E(TD-HF/TD-DFT) =  -112.217907738
 SCF Done:  E(RHF) =  -112.339910873     A.U. after    8 cycles

 Excitation energies and oscillator strengths:

 Excited State   1:      Singlet-A2     3.3193 eV  373.53 nm  f=0.0000  <S**2>=0.000
       5 ->  9         0.11911
       8 ->  9         0.70054
 This state for optimization and/or second-order correction.
 Total Energy, E(TD-HF/TD-DFT) =  -112.217930338
 Copying the excited state density for this state as the 1-particle RhoCI density.

 Excited State   2:      Singlet-B1     7.5562 eV  164.08 nm  f=0.0079  <S**2>=0.000
       6 ->  9         0.70959

 Optimization completed.
    -- Stationary point found.

                         Standard orientation:
 ---------------------------------------------------------------------
 Center     Atomic      Atomic             Coordinates (Angstroms)
 Number     Number       Type             X           Y           Z
 ---------------------------------------------------------------------
      1          6           0        0.000000   -0.000000   -0.586373
      2          1           0       -0.000000   -0.941350   -1.113320
      3          1           0        0.000000    0.941350   -1.113320
      4          8           0       -0.000000    0.000000    0.718110
 ---------------------------------------------------------------------

 The electronic state is 1-A1.
 Alpha  occ. eigenvalues --  -20.29400 -11.10591  -1.28057  -0.81617  -0.62523
 Alpha  occ. eigenvalues --   -0.51730  -0.39560  -0.36047
 Alpha virt. eigenvalues --    0.25316   0.63179   0.77168   0.78869

 Mulliken charges:
               1
     1  C   -0.152600
     2  H    0.077496
     3  H    0.077496
     4  O   -0.002393
 Sum of Mulliken charges =  -0.00000

 Dipole moment (field-independent basis, Debye):
    X=              0.0000    Y=              0.0000    Z=             -0.3508  Tot=              0.3508
 Quadrupole moment (field-independent basis, Debye-Ang):
   XX=            -11.4365   YY=             -9.5028   ZZ=            -11.0860
   XY=              0.0000   XZ=             -0.0000   YZ=              0.0000

 Normal termination of Gaussian 16 at Thu Feb 22 14:46:43 2024.
