 Gaussian 16, Revision C.01,

 ------------------------------------------------
 #p CAM-B3LYP/def2tzvp geom=connectivity opt freq
 ------------------------------------------------

 Investigation of Azulene step 1: ground state optimization and frequen
 cy calculation.
 ----------------------------------------------------------------------
 Symbolic Z-matrix:
 Charge =  0 Multiplicity = 1

 SCF Done:  E(RCAM-B3LYP) =  -385.735146640     A.U. after   15 cycles
 SCF Done:  E(RCAM-B3LYP) =  -385.739781645     A.U. after   15 cycles
 SCF Done:  E(RCAM-B3LYP) =  -385.740368195     A.U. after   12 cycles
 SCF Done:  E(RCAM-B3LYP) =  -385.740896959     A.U. after   15 cycles
 SCF Done:  E(RCAM-B3LYP) =  -385.740930912     A.U. after   10 cycles
 SCF Done:  E(RCAM-B3LYP) =  -385.740935037     A.U. after   10 cycles
 SCF Done:  E(RCAM-B3LYP) =  -385.740935304     A.U. after    7 cycles
 Optimization completed.
    -- Stationary point found.
 Normal termination of Gaussian 16 at Wed Apr 24 16:34:30 2024.

 ----------------------------------------------------------------------
 #P Geom=AllCheck Guess=TCheck SCRF=Check GenChk RCAM-B3LYP/def2TZVP Fr
 eq
 ----------------------------------------------------------------------

 ----------------------------------------------------------------------
 Investigation of Azulene step 1: ground state optimization and frequen
 cy calculation.
 ----------------------------------------------------------------------
 Charge =  0 Multiplicity = 1

 SCF Done:  E(RCAM-B3LYP) =  -385.740935304     A.U. after    1 cycles
 Optimization completed.
 Normal termination of Gaussian 16 at Wed Apr 24 16:38:05 2024.

 ----------------------------------------------------------------------
 #p CAM-B3LYP/def2TZVP TD=(nstates=3, Root=1) geom=check density=curren
 t opt freq=savenormalmodes
 ----------------------------------------------------------------------

 ----------
 Azulene S1
 ----------
 Structure from the checkpoint file:  "az_s1.chk"
 Charge =  0 Multiplicity = 1

 SCF Done:  E(RCAM-B3LYP) =  -385.740935304     A.U. after   15 cycles
 Total Energy, E(TD-HF/TD-DFT) =  -385.651572405
 SCF Done:  E(RCAM-B3LYP) =  -385.731955892     A.U. after   14 cycles
 Total Energy, E(TD-HF/TD-DFT) =  -385.662578379
 SCF Done:  E(RCAM-B3LYP) =  -385.727073172     A.U. after   13 cycles
 Total Energy, E(TD-HF/TD-DFT) =  -385.663869688
 SCF Done:  E(RCAM-B3LYP) =  -385.727382052     A.U. after   10 cycles
 Total Energy, E(TD-HF/TD-DFT) =  -385.663932625
 SCF Done:  E(RCAM-B3LYP) =  -385.727310006     A.U. after    9 cycles
 Total Energy, E(TD-HF/TD-DFT) =  -385.663936709
 Normal termination of Gaussian 16 at Wed Apr 24 17:04:15 2024.

 ----------------------------------------------------------------------
 #P Geom=AllCheck Guess=TCheck SCRF=Check GenChk RCAM-B3LYP TD(FC,Read)
 /def2TZVP Freq
 ----------------------------------------------------------------------

 Structure from the checkpoint file:  "az_s1.chk"
 ----------
 Azulene S1
 ----------
 Charge =  0 Multiplicity = 1

 SCF Done:  E(RCAM-B3LYP) =  -385.727310006     A.U. after    1 cycles
 Total Energy, E(TD-HF/TD-DFT) =  -385.663936677
 Normal termination of Gaussian 16 at Wed Apr 24 17:16:00 2024.
 Gaussian 16:  ES64L-G16RevC.01  3-Jul-2019

 ----------------------------------------------------------------------
 #p CAM-B3LYP/def2TZVP TD=(nstates=3, Root=2) geom=check density=curren
 t opt freq=savenormalmodes
 ----------------------------------------------------------------------

 ----------
 Azulene S2
 ----------
 Structure from the checkpoint file:  "az_s2.chk"
 Charge =  0 Multiplicity = 1

 SCF Done:  E(RCAM-B3LYP) =  -385.740935304     A.U. after   15 cycles
 Total Energy, E(TD-HF/TD-DFT) =  -385.602102880
 SCF Done:  E(RCAM-B3LYP) =  -385.739091325     A.U. after   12 cycles
 Total Energy, E(TD-HF/TD-DFT) =  -385.603993492
 SCF Done:  E(RCAM-B3LYP) =  -385.738891731     A.U. after   10 cycles
 Total Energy, E(TD-HF/TD-DFT) =  -385.604135523
 SCF Done:  E(RCAM-B3LYP) =  -385.738817919     A.U. after    9 cycles
 Total Energy, E(TD-HF/TD-DFT) =  -385.604145763
    -- Stationary point found.
 Normal termination of Gaussian 16 at Wed Apr 24 17:40:59 2024.

 ----------------------------------------------------------------------
 #P Geom=AllCheck Guess=TCheck SCRF=Check GenChk RCAM-B3LYP TD(FC,Read)
 /def2TZVP Freq
 ----------------------------------------------------------------------

 Structure from the checkpoint file:  "az_s2.chk"
 ----------
 Azulene S2
 ----------
 Charge =  0 Multiplicity = 1

                         Standard orientation:
 ---------------------------------------------------------------------
 Center     Atomic      Atomic             Coordinates (Angstroms)
 Number     Number       Type             X           Y           Z
 ---------------------------------------------------------------------
      1          6           0        2.497194    0.000002   -0.000001
      2          6           0        1.909312   -1.267057    0.000006
      3          6           0        0.551518   -1.597415    0.000006
      4          6           0        1.909314    1.267059   -0.000002
      5          6           0       -0.544830   -0.730837    0.000005
      6          6           0        0.551517    1.597411    0.000001
      7          6           0       -0.544825    0.730830    0.000001
      8          1           0        3.581194   -0.000001   -0.000005
      9          1           0        2.597484   -2.102850    0.000006
     10          1           0        0.314504   -2.654922   -0.000001
     11          1           0        2.597482    2.102855   -0.000008
     12          1           0        0.314500    2.654917   -0.000000
     13          6           0       -1.901355   -1.142335   -0.000026
     14          1           0       -2.242030   -2.165565   -0.000042
     15          6           0       -2.714356    0.000005    0.000027
     16          1           0       -3.793923   -0.000000    0.000034
     17          6           0       -1.901355    1.142336   -0.000011
     18          1           0       -2.242014    2.165572   -0.000017
 ---------------------------------------------------------------------

 SCF Done:  E(RCAM-B3LYP) =  -385.738817919     A.U. after    1 cycles

 Excitation energies and oscillator strengths:

 Excited State   1:      Singlet-A      2.2159 eV  559.53 nm  f=0.0063  <S**2>=0.000
      34 -> 35         0.70062

 Excited State   2:      Singlet-A      3.6646 eV  338.33 nm  f=0.0052  <S**2>=0.000
      33 -> 35         0.47385
      34 -> 36         0.52311
 This state for optimization and/or second-order correction.
 Total Energy, E(TD-HF/TD-DFT) =  -385.604145784
 Copying the excited state density for this state as the 1-particle RhoCI density.

 Excited State   3:      Singlet-A      4.7601 eV  260.46 nm  f=0.0586  <S**2>=0.000
      32 -> 35         0.24912
      33 -> 36         0.65016

 The electronic state is 1-A.
 Alpha  occ. eigenvalues --  -10.27584 -10.27581 -10.27289 -10.26046 -10.26044
 Alpha  occ. eigenvalues --  -10.25854 -10.25824 -10.24360 -10.23092 -10.23088
 Alpha  occ. eigenvalues --   -0.96178  -0.91059  -0.87304  -0.82161  -0.78297
 Alpha  occ. eigenvalues --   -0.73060  -0.69592  -0.62928  -0.62340  -0.58948
 Alpha  occ. eigenvalues --   -0.56999  -0.52922  -0.52598  -0.47447  -0.46495
 Alpha  occ. eigenvalues --   -0.46320  -0.44534  -0.43989  -0.42441  -0.40226
 Alpha  occ. eigenvalues --   -0.40162  -0.36629  -0.28838  -0.24439
 Alpha virt. eigenvalues --   -0.04385  -0.00925   0.07855   0.09819   0.11052
 Alpha virt. eigenvalues --    0.11538   0.12474   0.13120   0.14710   0.15429
 Alpha virt. eigenvalues --    0.16740   0.16831   0.17724   0.18146   0.20795

 Mulliken charges:
               1
     1  C   -0.135178
     2  C   -0.123593
     3  C   -0.180030
     4  C   -0.123593
     5  C    0.081309
     6  C   -0.180026
     7  C    0.081317
     8  H    0.127209
     9  H    0.119507
    10  H    0.121293
    11  H    0.119508
    12  H    0.121293
    13  C   -0.165807
    14  H    0.135031
    15  C   -0.109405
    16  H    0.141942
    17  C   -0.165808
    18  H    0.135031
 Sum of Mulliken charges =  -0.00000

 Dipole moment (field-independent basis, Debye):
    X=             -0.6838    Y=              0.0000    Z=             -0.0000  Tot=              0.6838
 Quadrupole moment (field-independent basis, Debye-Ang):
   XX=            -51.3999   YY=            -52.7306   ZZ=            -64.8820
   XY=              0.0000   XZ=             -0.0001   YZ=              0.0000

  Exact polarizability:     192.274       0.000     133.216      -0.000      -0.000      60.520
 Approx polarizability:     267.726       0.001     174.353      -0.000       0.000      82.718

                      1                      2                      3
                      A                      A                      A
 Frequencies --    144.5742               145.2406               302.2970
 Red. masses --      3.7316                 3.6066                 3.2658
 Frc consts  --      0.0460                 0.0448                 0.1758
 IR Inten    --      2.1564                 0.0001                 9.1629

                      4                      5                      6
                      A                      A                      A
 Frequencies --    336.2675               348.4803               389.8144
 Red. masses --      4.3604                 3.0378                 6.9773
 Frc consts  --      0.2905                 0.2174                 0.6247
 IR Inten    --      2.1639                 0.0000                 0.1392

                      7                      8                      9
                      A                      A                      A
 Frequencies --    496.2067               531.3193               546.5690
 Red. masses --      5.6772                 2.4209                 2.2730
 Frc consts  --      0.8236                 0.4027                 0.4001
 IR Inten    --      5.1962                 0.7364                18.1203

                     10                     11                     12
                      A                      A                      A
 Frequencies --    675.3227               687.5748               689.9077
 Red. masses --      1.1600                 2.1638                 5.2956
 Frc consts  --      0.3117                 0.6027                 1.4851
 IR Inten    --     10.7006                 0.0000                 0.0169

                     13                     14                     15
                      A                      A                      A
 Frequencies --    738.3039               749.0182               750.8324
 Red. masses --      1.2946                 1.3124                 5.4037
 Frc consts  --      0.4158                 0.4338                 1.7949
 IR Inten    --    125.2682                 0.0000                 1.3807

                     16                     17                     18
                      A                      A                      A
 Frequencies --    827.0637               851.1696               889.4411
 Red. masses --      1.8724                 5.4339                 1.3996
 Frc consts  --      0.7546                 2.3195                 0.6524
 IR Inten    --      0.0000                 1.8484                 4.9193

                     19                     20                     21
                      A                      A                      A
 Frequencies --    914.1302               916.0202               921.8127
 Red. masses --      1.4403                 1.5817                 5.7967
 Frc consts  --      0.7091                 0.7820                 2.9021
 IR Inten    --      0.0000                 3.0575                 0.0941

                     22                     23                     24
                      A                      A                      A
 Frequencies --    954.0799               957.9698              1004.4332
 Red. masses --      1.4023                 2.9690                 2.2368
 Frc consts  --      0.7521                 1.6053                 1.3296
 IR Inten    --      0.4720                 0.7014                 0.3394

                     25                     26                     27
                      A                      A                      A
 Frequencies --   1059.3714              1074.8064              1166.5874
 Red. masses --      1.7969                 1.5112                 2.1011
 Frc consts  --      1.1882                 1.0285                 1.6848
 IR Inten    --      5.0348                19.0594                 4.8141

                     28                     29                     30
                      A                      A                      A
 Frequencies --   1179.2627              1239.6835              1252.8619
 Red. masses --      2.5651                 1.7467                 2.1449
 Frc consts  --      2.1017                 1.5816                 1.9836
 IR Inten    --      6.3304                 7.4906                 1.3085

                     31                     32                     33
                      A                      A                      A
 Frequencies --   1271.2049              1348.7974              1379.1385
 Red. masses --      1.3062                 1.8441                 1.6129
 Frc consts  --      1.2436                 1.9766                 1.8075
 IR Inten    --     16.7417                14.7292                 0.5049

                     34                     35                     36
                      A                      A                      A
 Frequencies --   1421.2452              1429.8912              1460.8427
 Red. masses --      3.0385                 3.3699                 2.8027
 Frc consts  --      3.6162                 4.0596                 3.5240
 IR Inten    --     35.5899                10.9395                 1.2320

                     37                     38                     39
                      A                      A                      A
 Frequencies --   1487.6118              1497.0900              1565.3134
 Red. masses --      1.7677                 2.2006                 2.9407
 Frc consts  --      2.3049                 2.9060                 4.2453
 IR Inten    --      0.1106                 0.4644                28.6070

                     40                     41                     42
                      A                      A                      A
 Frequencies --   1613.0360              3169.5546              3176.7690
 Red. masses --      3.9240                 1.0842                 1.0859
 Frc consts  --      6.0155                 6.4174                 6.4565
 IR Inten    --      1.0808                 0.2295                 3.6049

                     43                     44                     45
                      A                      A                      A
 Frequencies --   3180.9444              3195.8196              3203.6476
 Red. masses --      1.0879                 1.0905                 1.0929
 Frc consts  --      6.4857                 6.5619                 6.6087
 IR Inten    --      7.5733                20.5533                15.6130

                     46                     47                     48
                      A                      A                      A
 Frequencies --   3236.3580              3251.3849              3260.0728
 Red. masses --      1.0889                 1.0934                 1.1019
 Frc consts  --      6.7195                 6.8102                 6.8999
 IR Inten    --      0.9710                 2.0491                 3.3220

 - Thermochemistry -
 -------------------
 Temperature   298.150 Kelvin.  Pressure   1.00000 Atm.
 Atom     1 has atomic number  6 and mass  12.00000

 Molecular mass:   128.06260 amu.
 Principal axes and moments of inertia in atomic units:
                           1         2         3
     Eigenvalues --   630.230411440.126542070.35695
           X            1.00000   0.00000  -0.00000
           Y           -0.00000   1.00000   0.00000
           Z            0.00000  -0.00000   1.00000
 This molecule is an asymmetric top.
 Rotational symmetry number  1.
 Warning -- assumption of classical behavior for rotation
           may cause significant error
 Rotational temperatures (Kelvin)      0.13743     0.06014     0.04184
 Rotational constants (GHZ):           2.86362     1.25318     0.87171
 Zero-point vibrational energy     376160.6 (Joules/Mol)
                                   89.90455 (Kcal/Mol)
 Warning -- explicit consideration of   9 degrees of freedom as
           vibrations may cause significant error
 Vibrational temperatures:    208.01   208.97   434.94   483.81   501.39
          (Kelvin)            560.86   713.93   764.45   786.39   971.64
                              989.27   992.62  1062.25  1077.67  1080.28
                             1189.96  1224.64  1279.71  1315.23  1317.95
                             1326.28  1372.71  1378.30  1445.16  1524.20
                             1546.41  1678.46  1696.70  1783.63  1802.59
                             1828.98  1940.62  1984.27  2044.85  2057.29
                             2101.83  2140.34  2153.98  2252.14  2320.80
                             4560.28  4570.66  4576.67  4598.07  4609.33
                             4656.40  4678.02  4690.52

 Zero-point correction=                           0.143272 (Hartree/Particle)
 Thermal correction to Energy=                    0.150805
 Thermal correction to Enthalpy=                  0.151749
 Thermal correction to Gibbs Free Energy=         0.111374
 Sum of electronic and zero-point Energies=           -385.460874
 Sum of electronic and thermal Energies=              -385.453341
 Sum of electronic and thermal Enthalpies=            -385.452396
 Sum of electronic and thermal Free Energies=         -385.492772

                     E (Thermal)             CV                S
                      KCal/Mol        Cal/Mol-Kelvin    Cal/Mol-Kelvin
 Total                   94.632             31.233             84.978
 Electronic               0.000              0.000              0.000
 Translational            0.889              2.981             40.455
 Rotational               0.889              2.981             29.020
 Vibrational             92.854             25.271             15.502
 Vibration     1          0.616              1.909              2.742
 Vibration     2          0.617              1.908              2.734
 Vibration     3          0.694              1.669              1.404
 Vibration     4          0.717              1.603              1.230
 Vibration     5          0.726              1.578              1.173
 Vibration     6          0.758              1.492              1.001
 Vibration     7          0.852              1.258              0.668
 Vibration     8          0.886              1.181              0.584
 Vibration     9          0.902              1.147              0.551

 Optimization completed.
    -- Stationary point found.
 Normal termination of Gaussian 16 at Wed Apr 24 17:54:30 2024.
