 Gaussian 16, Revision C.01,

 -------------------------------------------------
 #p CAM-B3LYP/6-31G(d') geom=connectivity opt freq
 -------------------------------------------------

 Investigation of Azulene step 1: ground state optimization and frequen
 cy calculation.
 ----------------------------------------------------------------------
 Symbolic Z-matrix:
 Charge =  0 Multiplicity = 1

 SCF Done:  E(RCAM-B3LYP) =  -385.587863307     A.U. after   17 cycles
 SCF Done:  E(RCAM-B3LYP) =  -385.591438740     A.U. after   15 cycles
 SCF Done:  E(RCAM-B3LYP) =  -385.592069869     A.U. after   12 cycles
 SCF Done:  E(RCAM-B3LYP) =  -385.592552865     A.U. after   15 cycles
 SCF Done:  E(RCAM-B3LYP) =  -385.592581660     A.U. after   11 cycles
 SCF Done:  E(RCAM-B3LYP) =  -385.592584372     A.U. after   10 cycles
 SCF Done:  E(RCAM-B3LYP) =  -385.592584656     A.U. after   10 cycles
 Optimization completed.
    -- Stationary point found.
 Normal termination of Gaussian 16 at Fri Apr 26 11:50:02 2024.

 ----------------------------------------------------------------------
 #P Geom=AllCheck Guess=TCheck SCRF=Check GenChk RCAM-B3LYP/6-31(d') Fr
 eq
 ----------------------------------------------------------------------

 ----------------------------------------------------------------------
 Investigation of Azulene step 1: ground state optimization and frequen
 cy calculation.
 ----------------------------------------------------------------------
 Charge =  0 Multiplicity = 1

 SCF Done:  E(RCAM-B3LYP) =  -385.592584656     A.U. after    1 cycles
 Optimization completed.
 Normal termination of Gaussian 16 at Fri Apr 26 11:50:43 2024.

 ----------------------------------------------------------------------
 #p CAM-B3LYP/6-31G(d') TD=(nstates=3, Root=1) geom=check density=curre
 nt opt freq=savenormalmodes
 ----------------------------------------------------------------------

 ----------
 Azulene S1
 ----------
 Structure from the checkpoint file:  "az_test1.chk"
 Charge =  0 Multiplicity = 1

 SCF Done:  E(RCAM-B3LYP) =  -385.592584656     A.U. after   15 cycles
 Total Energy, E(TD-HF/TD-DFT) =  -385.502537871
 SCF Done:  E(RCAM-B3LYP) =  -385.582769908     A.U. after   14 cycles
 Total Energy, E(TD-HF/TD-DFT) =  -385.514020217
 SCF Done:  E(RCAM-B3LYP) =  -385.578261553     A.U. after   12 cycles
 Total Energy, E(TD-HF/TD-DFT) =  -385.515184204
 SCF Done:  E(RCAM-B3LYP) =  -385.578619614     A.U. after   10 cycles
 Total Energy, E(TD-HF/TD-DFT) =  -385.515243035
 SCF Done:  E(RCAM-B3LYP) =  -385.578547694     A.U. after    9 cycles
 Total Energy, E(TD-HF/TD-DFT) =  -385.515246821
 Normal termination of Gaussian 16 at Fri Apr 26 11:55:10 2024.

 ----------------------------------------------------------------------
 #P Geom=AllCheck Guess=TCheck SCRF=Check GenChk RCAM-B3LYP TD(FC,Read)
 /6-31(d') Freq
 ----------------------------------------------------------------------

 Structure from the checkpoint file:  "az_test1.chk"
 ----------
 Azulene S1
 ----------
 Charge =  0 Multiplicity = 1

 SCF Done:  E(RCAM-B3LYP) =  -385.578547694     A.U. after    1 cycles
 Total Energy, E(TD-HF/TD-DFT) =  -385.515246811
 Normal termination of Gaussian 16 at Fri Apr 26 11:57:04 2024.
 Gaussian 16:  ES64L-G16RevC.01  3-Jul-2019

 ----------------------------------------------------------------------
 #p CAM-B3LYP/6-31G(d') TD=(nstates=3, Root=2) geom=check density=curre
 nt opt freq=savenormalmodes
 ----------------------------------------------------------------------

 ----------
 Azulene S2
 ----------
 Structure from the checkpoint file:  "az_test2.chk"
 Charge =  0 Multiplicity = 1

 SCF Done:  E(RCAM-B3LYP) =  -385.592584656     A.U. after   15 cycles
 Total Energy, E(TD-HF/TD-DFT) =  -385.451417111
 SCF Done:  E(RCAM-B3LYP) =  -385.590525369     A.U. after   12 cycles
 Total Energy, E(TD-HF/TD-DFT) =  -385.453409568
 SCF Done:  E(RCAM-B3LYP) =  -385.590420715     A.U. after   10 cycles
 Total Energy, E(TD-HF/TD-DFT) =  -385.453557361
 SCF Done:  E(RCAM-B3LYP) =  -385.590354964     A.U. after   10 cycles
 Total Energy, E(TD-HF/TD-DFT) =  -385.453566802
    -- Stationary point found.
 Normal termination of Gaussian 16 at Fri Apr 26 12:00:04 2024.

 ----------------------------------------------------------------------
 #P Geom=AllCheck Guess=TCheck SCRF=Check GenChk RCAM-B3LYP TD(FC,Read)
 /6-31(d') Freq
 ----------------------------------------------------------------------

 Structure from the checkpoint file:  "az_test2.chk"
 ----------
 Azulene S2
 ----------
 Charge =  0 Multiplicity = 1

                         Standard orientation:
 ---------------------------------------------------------------------
 Center     Atomic      Atomic             Coordinates (Angstroms)
 Number     Number       Type             X           Y           Z
 ---------------------------------------------------------------------
      1          6           0        2.508347    0.000001    0.000003
      2          6           0        1.917712   -1.272391    0.000006
      3          6           0        0.553775   -1.603136    0.000004
      4          6           0        1.917712    1.272392   -0.000002
      5          6           0       -0.547931   -0.732555    0.000003
      6          6           0        0.553773    1.603133   -0.000003
      7          6           0       -0.547930    0.732551   -0.000001
      8          1           0        3.597425    0.000001    0.000002
      9          1           0        2.607410   -2.113298    0.000006
     10          1           0        0.314576   -2.665168   -0.000003
     11          1           0        2.607408    2.113302   -0.000006
     12          1           0        0.314573    2.665165   -0.000005
     13          6           0       -1.909065   -1.146671   -0.000024
     14          1           0       -2.249560   -2.175332   -0.000039
     15          6           0       -2.725912    0.000003    0.000026
     16          1           0       -3.810768   -0.000002    0.000034
     17          6           0       -1.909066    1.146672   -0.000007
     18          1           0       -2.249549    2.175337   -0.000011
 ---------------------------------------------------------------------

 SCF Done:  E(RCAM-B3LYP) =  -385.590354964     A.U. after    1 cycles

 Excitation energies and oscillator strengths:

 Excited State   1:      Singlet-A      2.2223 eV  557.90 nm  f=0.0067  <S**2>=0.000
      33 -> 36        -0.10276
      34 -> 35         0.70074

 Excited State   2:      Singlet-A      3.7222 eV  333.09 nm  f=0.0044  <S**2>=0.000
      33 -> 35         0.47470
      34 -> 36         0.52247
 This state for optimization and/or second-order correction.
 Total Energy, E(TD-HF/TD-DFT) =  -385.453566835
 Copying the excited state density for this state as the 1-particle RhoCI density.

 Excited State   3:      Singlet-A      4.8147 eV  257.51 nm  f=0.0582  <S**2>=0.000
      32 -> 35         0.26264
      33 -> 36         0.64652

 The electronic state is 1-A.
 Alpha  occ. eigenvalues --  -10.28633 -10.28633 -10.28449 -10.27209 -10.27207
 Alpha  occ. eigenvalues --  -10.26644 -10.26611 -10.25410 -10.24045 -10.24043
 Alpha  occ. eigenvalues --   -0.94946  -0.89952  -0.86271  -0.81116  -0.77259
 Alpha  occ. eigenvalues --   -0.72089  -0.68635  -0.61888  -0.61281  -0.57827
 Alpha  occ. eigenvalues --   -0.56120  -0.52059  -0.51582  -0.46377  -0.45416
 Alpha  occ. eigenvalues --   -0.45110  -0.43527  -0.42941  -0.41448  -0.39233
 Alpha  occ. eigenvalues --   -0.38851  -0.35373  -0.27537  -0.23115
 Alpha virt. eigenvalues --   -0.02858   0.00644   0.13075   0.14431   0.16691
 Alpha virt. eigenvalues --    0.18367   0.18516   0.20528   0.21581   0.21915
 Alpha virt. eigenvalues --    0.22899   0.24990   0.25551   0.28579   0.32475

 Mulliken charges:
               1
     1  C   -0.127939
     2  C   -0.160806
     3  C   -0.216089
     4  C   -0.160806
     5  C    0.144031
     6  C   -0.216089
     7  C    0.144029
     8  H    0.144204
     9  H    0.137644
    10  H    0.140203
    11  H    0.137644
    12  H    0.140203
    13  C   -0.211779
    14  H    0.143578
    15  C   -0.123280
    16  H    0.153453
    17  C   -0.211776
    18  H    0.143577
 Sum of Mulliken charges =  -0.00000

 Dipole moment (field-independent basis, Debye):
    X=             -0.6504    Y=              0.0000    Z=              0.0000  Tot=              0.6504
 Quadrupole moment (field-independent basis, Debye-Ang):
   XX=            -49.8498   YY=            -51.4894   ZZ=            -62.6066
   XY=              0.0000   XZ=             -0.0001   YZ=              0.0000

  Exact polarizability:     178.603       0.000     123.184      -0.000       0.000      35.229
 Approx polarizability:     256.658       0.000     162.789      -0.000       0.000      49.829

                      1                      2                      3
                      A                      A                      A
 Frequencies --    146.1893               151.5566               305.6673
 Red. masses --      3.7221                 3.6223                 3.2990
 Frc consts  --      0.0469                 0.0490                 0.1816
 IR Inten    --      1.5021                 0.0000                 4.7909

                      4                      5                      6
                      A                      A                      A
 Frequencies --    333.5888               356.1017               391.6971
 Red. masses --      4.3667                 3.0360                 6.9641
 Frc consts  --      0.2863                 0.2268                 0.6295
 IR Inten    --      2.0280                 0.0000                 0.0611

                      7                      8                      9
                      A                      A                      A
 Frequencies --    494.4768               532.6383               546.7754
 Red. masses --      5.7000                 2.6160                 2.3165
 Frc consts  --      0.8211                 0.4373                 0.4080
 IR Inten    --      4.9028                 0.0593                10.8320

                     10                     11                     12
                      A                      A                      A
 Frequencies --    678.2503               684.4784               691.5176
 Red. masses --      1.1635                 2.0626                 5.2979
 Frc consts  --      0.3154                 0.5694                 1.4927
 IR Inten    --      7.6149                 0.0000                 0.0346

                     13                     14                     15
                      A                      A                      A
 Frequencies --    737.2112               746.8156               748.2049
 Red. masses --      1.2890                 5.4232                 1.3301
 Frc consts  --      0.4128                 1.7821                 0.4387
 IR Inten    --     92.7180                 2.0669                 0.0000

                     16                     17                     18
                      A                      A                      A
 Frequencies --    826.8806               852.8255               887.3275
 Red. masses --      1.9220                 5.1829                 1.3855
 Frc consts  --      0.7743                 2.2210                 0.6427
 IR Inten    --      0.0000                 1.3994                 4.1353

                     19                     20                     21
                      A                      A                      A
 Frequencies --    911.0137               913.7568               916.1664
 Red. masses --      1.5377                 1.4359                 5.7745
 Frc consts  --      0.7519                 0.7064                 2.8557
 IR Inten    --      2.7806                 0.0000                 0.0421

                     22                     23                     24
                      A                      A                      A
 Frequencies --    959.2295               965.3281              1041.7292
 Red. masses --      1.3727                 2.9309                 1.9018
 Frc consts  --      0.7442                 1.6092                 1.2159
 IR Inten    --      0.3618                 0.0872                 0.0036

                     25                     26                     27
                      A                      A                      A
 Frequencies --   1061.4669              1080.6947              1182.8334
 Red. masses --      1.6755                 1.5862                 2.3374
 Frc consts  --      1.1123                 1.0915                 1.9268
 IR Inten    --      4.1276                19.6085                 6.8174

                     28                     29                     30
                      A                      A                      A
 Frequencies --   1189.9244              1244.0731              1264.5834
 Red. masses --      2.0021                 1.7592                 2.3655
 Frc consts  --      1.6702                 1.6042                 2.2288
 IR Inten    --      2.5289                11.2234                 0.2745

                     31                     32                     33
                      A                      A                      A
 Frequencies --   1278.1026              1366.5672              1381.1219
 Red. masses --      1.2459                 1.9241                 1.5870
 Frc consts  --      1.1991                 2.1171                 1.7836
 IR Inten    --     11.2718                20.0970                 0.3059

                     34                     35                     36
                      A                      A                      A
 Frequencies --   1436.7465              1444.6647              1472.0043
 Red. masses --      3.0804                 3.1568                 2.9536
 Frc consts  --      3.7464                 3.8818                 3.7707
 IR Inten    --     39.6751                 8.8638                 0.2949

                     37                     38                     39
                      A                      A                      A
 Frequencies --   1494.1574              1510.5326              1580.8266
 Red. masses --      1.9479                 2.4505                 3.1555
 Frc consts  --      2.5622                 3.2944                 4.6461
 IR Inten    --      0.1371                 0.5737                29.0220

                     40                     41                     42
                      A                      A                      A
 Frequencies --   1633.3723              3181.6548              3188.7379
 Red. masses --      4.1243                 1.0840                 1.0860
 Frc consts  --      6.4830                 6.4653                 6.5059
 IR Inten    --      0.7676                 0.4455                 4.9941

                     43                     44                     45
                      A                      A                      A
 Frequencies --   3193.1521              3208.7256              3217.1666
 Red. masses --      1.0884                 1.0912                 1.0936
 Frc consts  --      6.5386                 6.6192                 6.6689
 IR Inten    --     11.0530                31.9919                26.0323

                     46                     47                     48
                      A                      A                      A
 Frequencies --   3249.5307              3264.9440              3274.7358
 Red. masses --      1.0884                 1.0938                 1.1025
 Frc consts  --      6.7716                 6.8696                 6.9661
 IR Inten    --      1.8530                 4.7220                 7.5733

 - Thermochemistry -
 -------------------
 Temperature   298.150 Kelvin.  Pressure   1.00000 Atm.
 Atom     1 has atomic number  6 and mass  12.00000

 Molecular mass:   128.06260 amu.
 Principal axes and moments of inertia in atomic units:
                           1         2         3
     Eigenvalues --   635.041811452.485932087.52774
           X            1.00000   0.00000  -0.00000
           Y           -0.00000   1.00000   0.00000
           Z            0.00000  -0.00000   1.00000
 This molecule is an asymmetric top.
 Rotational symmetry number  1.
 Warning -- assumption of classical behavior for rotation
           may cause significant error
 Rotational temperatures (Kelvin)      0.13639     0.05963     0.04149
 Rotational constants (GHZ):           2.84193     1.24252     0.86454
 Zero-point vibrational energy     378138.1 (Joules/Mol)
                                   90.37716 (Kcal/Mol)
 Warning -- explicit consideration of   9 degrees of freedom as
           vibrations may cause significant error
 Vibrational temperatures:    210.33   218.06   439.79   479.96   512.35
          (Kelvin)            563.56   711.44   766.35   786.69   975.85
                              984.81   994.94  1060.68  1074.50  1076.50
                             1189.70  1227.03  1276.67  1310.75  1314.69
                             1318.16  1380.12  1388.89  1498.82  1527.21
                             1554.88  1701.83  1712.04  1789.94  1819.45
                             1838.90  1966.19  1987.13  2067.16  2078.55
                             2117.89  2149.76  2173.32  2274.46  2350.06
                             4577.69  4587.88  4594.23  4616.64  4628.79
                             4675.35  4697.53  4711.61

 Zero-point correction=                           0.144025 (Hartree/Particle)
 Thermal correction to Energy=                    0.151523
 Thermal correction to Enthalpy=                  0.152468
 Thermal correction to Gibbs Free Energy=         0.112163
 Sum of electronic and zero-point Energies=           -385.309542
 Sum of electronic and thermal Energies=              -385.302043
 Sum of electronic and thermal Enthalpies=            -385.301099
 Sum of electronic and thermal Free Energies=         -385.341404

                     E (Thermal)             CV                S
                      KCal/Mol        Cal/Mol-Kelvin    Cal/Mol-Kelvin
 Total                   95.082             31.101             84.828
 Electronic               0.000              0.000              0.000
 Translational            0.889              2.981             40.455
 Rotational               0.889              2.981             29.045
 Vibrational             93.305             25.140             15.329
 Vibration     1          0.617              1.907              2.721
 Vibration     2          0.619              1.901              2.653
 Vibration     3          0.696              1.663              1.386
 Vibration     4          0.715              1.608              1.243
 Vibration     5          0.732              1.563              1.139
 Vibration     6          0.759              1.488              0.994
 Vibration     7          0.850              1.262              0.672
 Vibration     8          0.888              1.178              0.581
 Vibration     9          0.902              1.147              0.551

 Optimization completed.
    -- Stationary point found.
 Normal termination of Gaussian 16 at Fri Apr 26 12:01:51 2024.
