 Gaussian 16, Revision C.01,

 --------------------------------------------
 #p opt freq b3lyp/def2tzvp geom=connectivity
 --------------------------------------------

 Ground state optimization and frequency calculation for neutral naphth
 alene.
 ----------------------------------------------------------------------
 Symbolic Z-matrix:
 Charge =  0 Multiplicity = 1

 SCF Done:  E(RB3LYP) =  -386.031385104     A.U. after   14 cycles
 SCF Done:  E(RB3LYP) =  -386.033052461     A.U. after   12 cycles
 SCF Done:  E(RB3LYP) =  -386.033075598     A.U. after    8 cycles
 SCF Done:  E(RB3LYP) =  -386.033079755     A.U. after    7 cycles
 Optimization completed.
    -- Stationary point found.
 Normal termination of Gaussian 16 at Fri Apr  5 14:57:30 2024.

 --------------------------------------------------------------------
 #P Geom=AllCheck Guess=TCheck SCRF=Check GenChk RB3LYP/def2TZVP Freq
 --------------------------------------------------------------------

 ----------------------------------------------------------------------
 Ground state optimization and frequency calculation for neutral naphth
 alene.
 ----------------------------------------------------------------------
 Charge =  0 Multiplicity = 1

 SCF Done:  E(RB3LYP) =  -386.033079755     A.U. after    1 cycles
 Optimization completed.
 Normal termination of Gaussian 16 at Fri Apr  5 15:00:45 2024.

 ----------------------------------------------------------------------
 #p opt freq=savenormalmodes b3lyp/def2tzvp TD=(nstates=2, Root=1) geom
 =check
 ----------------------------------------------------------------------

 --------------------------------------------------------------------
 Neutral naphthalene TD-DFT excitation/optimization freq calculation.
 --------------------------------------------------------------------
 Structure from the checkpoint file:  "Naphthalene_n_1-2.chk"
 Charge =  0 Multiplicity = 1

 SCF Done:  E(RB3LYP) =  -386.033079755     A.U. after   15 cycles
 Total Energy, E(TD-HF/TD-DFT) =  -385.872484928
 SCF Done:  E(RB3LYP) =  -386.025848576     A.U. after   11 cycles
 Total Energy, E(TD-HF/TD-DFT) =  -385.882168307
 SCF Done:  E(RB3LYP) =  -386.022862096     A.U. after    9 cycles
 Total Energy, E(TD-HF/TD-DFT) =  -385.882968158
 SCF Done:  E(RB3LYP) =  -386.022495395     A.U. after    8 cycles
 Total Energy, E(TD-HF/TD-DFT) =  -385.883013855
 SCF Done:  E(RB3LYP) =  -386.022535171     A.U. after    6 cycles
 Total Energy, E(TD-HF/TD-DFT) =  -385.883016768
    -- Stationary point found.
 Normal termination of Gaussian 16 at Fri Apr  5 15:20:54 2024.

 ----------------------------------------------------------------------
 #P Geom=AllCheck Guess=TCheck SCRF=Check GenChk RB3LYP TD(FC,Read)/def
 2TZVP Freq
 ----------------------------------------------------------------------

 Structure from the checkpoint file:  "Naphthalene_n_1-2.chk"
 --------------------------------------------------------------------
 Neutral naphthalene TD-DFT excitation/optimization freq calculation.
 --------------------------------------------------------------------
 Charge =  0 Multiplicity = 1

                         Standard orientation:
 ---------------------------------------------------------------------
 Center     Atomic      Atomic             Coordinates (Angstroms)
 Number     Number       Type             X           Y           Z
 ---------------------------------------------------------------------
      1          6           0        2.475975   -0.685707   -0.000000
      2          6           0        1.237974   -1.391986   -0.000000
      3          6           0        0.000000   -0.717341    0.000000
      4          6           0       -0.000000    0.717341   -0.000000
      5          6           0        1.237974    1.391986    0.000000
      6          6           0        2.475975    0.685707    0.000000
      7          1           0       -1.244528   -2.475206    0.000001
      8          1           0        3.404851   -1.240323   -0.000000
      9          1           0        1.244528   -2.475206   -0.000000
     10          6           0       -1.237974   -1.391986    0.000000
     11          6           0       -1.237974    1.391986    0.000000
     12          1           0        1.244528    2.475206    0.000000
     13          1           0        3.404850    1.240324    0.000000
     14          6           0       -2.475975    0.685707   -0.000000
     15          6           0       -2.475975   -0.685707    0.000000
     16          1           0       -1.244528    2.475206    0.000000
     17          1           0       -3.404851    1.240323   -0.000000
     18          1           0       -3.404850   -1.240324   -0.000000
 ---------------------------------------------------------------------

 SCF Done:  E(RB3LYP) =  -386.022535171     A.U. after    1 cycles

 Excitation energies and oscillator strengths:

 Excited State   1:      Singlet-A      3.7965 eV  326.58 nm  f=0.0707  <S**2>=0.000
      33 -> 36        -0.10662
      34 -> 35        -0.69646
 This state for optimization and/or second-order correction.
 Total Energy, E(TD-HF/TD-DFT) =  -385.883016770
 Copying the excited state density for this state as the 1-particle RhoCI density.

 Excited State   2:      Singlet-A      4.2790 eV  289.75 nm  f=0.0005  <S**2>=0.000
      33 -> 35         0.48872
      34 -> 36        -0.50985

 The electronic state is 1-A.
 Alpha  occ. eigenvalues --  -10.18865 -10.18828 -10.18382 -10.18381 -10.18380
 Alpha  occ. eigenvalues --  -10.18376 -10.18177 -10.18176 -10.18112 -10.18112
 Alpha  occ. eigenvalues --   -0.87642  -0.82284  -0.77349  -0.75300  -0.71087
 Alpha  occ. eigenvalues --   -0.63957  -0.61030  -0.60046  -0.51785  -0.51766
 Alpha  occ. eigenvalues --   -0.49871  -0.45230  -0.44986  -0.42430  -0.41757
 Alpha  occ. eigenvalues --   -0.39830  -0.39631  -0.38317  -0.34263  -0.33924
 Alpha  occ. eigenvalues --   -0.33364  -0.28961  -0.25950  -0.21388
 Alpha virt. eigenvalues --   -0.06277  -0.01828   0.00985   0.04828   0.05923
 Alpha virt. eigenvalues --    0.06361   0.07846   0.08863   0.09273   0.10219
 Alpha virt. eigenvalues --    0.11712   0.12986   0.14463   0.15621   0.16527

 Mulliken charges:
               1
     1  C   -0.107202
     2  C   -0.166933
     3  C    0.121311
     4  C    0.121311
     5  C   -0.166933
     6  C   -0.107202
     7  H    0.103358
     8  H    0.110122
     9  H    0.103358
    10  C   -0.166933
    11  C   -0.166933
    12  H    0.103358
    13  H    0.110122
    14  C   -0.107202
    15  C   -0.107202
    16  H    0.103358
    17  H    0.110122
    18  H    0.110122
 Sum of Mulliken charges =  -0.00000

 Dipole moment (field-independent basis, Debye):
    X=             -0.0000    Y=              0.0000    Z=              0.0000  Tot=              0.0000
 Quadrupole moment (field-independent basis, Debye-Ang):
   XX=            -51.4254   YY=            -52.4035   ZZ=            -64.2854
   XY=             -0.0000   XZ=             -0.0000   YZ=             -0.0000

  Exact polarizability:     275.568      -0.000     131.410      -0.000       0.000      60.331
 Approx polarizability:     298.004       0.000     227.971       0.000       0.000      96.864

                      1                      2                      3
                      A                      A                      A
 Frequencies --    154.5692               159.5401               267.0256
 Red. masses --      3.2795                 3.8989                 3.0422
 Frc consts  --      0.0462                 0.0585                 0.1278
 IR Inten    --      0.0000                 3.4584                 0.0000

                      4                      5                      6
                      A                      A                      A
 Frequencies --    358.3058               383.8176               466.2235
 Red. masses --      3.8827                 2.4581                 3.5279
 Frc consts  --      0.2937                 0.2134                 0.4518
 IR Inten    --      1.4266                11.1336                 0.0000

                      7                      8                      9
                      A                      A                      A
 Frequencies --    478.1243               478.4341               506.0828
 Red. masses --      2.1229                 7.0778                 6.7398
 Frc consts  --      0.2859                 0.9545                 1.0170
 IR Inten    --      0.0000                 0.0000                 0.0000

                     10                     11                     12
                      A                      A                      A
 Frequencies --    564.3655               681.4524               684.8096
 Red. masses --      6.6379                 1.1313                 1.2204
 Frc consts  --      1.2457                 0.3095                 0.3372
 IR Inten    --    180.5709                 0.0000               131.9807

                     13                     14                     15
                      A                      A                      A
 Frequencies --    728.4472               734.5237               759.2214
 Red. masses --      2.5683                 1.7085                 4.7135
 Frc consts  --      0.8029                 0.5431                 1.6008
 IR Inten    --      0.0000                 0.0000                 0.0000

                     16                     17                     18
                      A                      A                      A
 Frequencies --    798.6577               815.5425               842.4954
 Red. masses --      4.9062                 1.3500                 1.6361
 Frc consts  --      1.8438                 0.5290                 0.6842
 IR Inten    --      7.8631                 0.0000                15.2777

                     19                     20                     21
                      A                      A                      A
 Frequencies --    848.3417               880.7425               884.0967
 Red. masses --      1.9507                 1.2661                 1.2677
 Frc consts  --      0.8272                 0.5786                 0.5838
 IR Inten    --      0.0000                 0.0000                 0.0000

                     22                     23                     24
                      A                      A                      A
 Frequencies --    923.3564              1010.3477              1044.9972
 Red. masses --      5.2244                 3.4938                 1.9856
 Frc consts  --      2.6244                 2.1013                 1.2775
 IR Inten    --      0.0000                39.8273                 0.0000

                     25                     26                     27
                      A                      A                      A
 Frequencies --   1058.4939              1085.4494              1179.9057
 Red. masses --      2.0121                 2.0105                 1.0834
 Frc consts  --      1.3282                 1.3956                 0.8887
 IR Inten    --      0.0000                 1.1519                 0.0000

                     28                     29                     30
                      A                      A                      A
 Frequencies --   1180.5294              1229.9561              1250.7537
 Red. masses --      1.1284                 1.5380                 1.6844
 Frc consts  --      0.9265                 1.3708                 1.5526
 IR Inten    --      1.0152                 0.3908                 0.0000

                     31                     32                     33
                      A                      A                      A
 Frequencies --   1289.6959              1396.4846              1414.8412
 Red. masses --      2.0870                 8.2174                 1.5665
 Frc consts  --      2.0453                 9.4418                 1.8475
 IR Inten    --     11.5237                 0.0000                12.8899

                     34                     35                     36
                      A                      A                      A
 Frequencies --   1426.0553              1437.2027              1483.9294
 Red. masses --      1.6652                 6.5415                 2.0967
 Frc consts  --      1.9952                 7.9610                 2.7202
 IR Inten    --      0.0000                 0.0887                 0.0000

                     37                     38                     39
                      A                      A                      A
 Frequencies --   1489.8174              1490.5763              1576.1537
 Red. masses --      3.3436                 3.0375                 3.4860
 Frc consts  --      4.3725                 3.9762                 5.1025
 IR Inten    --      0.0000                 6.9500                48.8358

                     40                     41                     42
                      A                      A                      A
 Frequencies --   1609.3046              3168.0055              3170.3799
 Red. masses --      5.7111                 1.0849                 1.0868
 Frc consts  --      8.7146                 6.4155                 6.4362
 IR Inten    --      0.0000                 0.0000                45.1460

                     43                     44                     45
                      A                      A                      A
 Frequencies --   3171.3529              3175.0196              3184.5936
 Red. masses --      1.0862                 1.0876                 1.0876
 Frc consts  --      6.4365                 6.4597                 6.4988
 IR Inten    --     17.0290                 0.0000                 0.0000

                     46                     47                     48
                      A                      A                      A
 Frequencies --   3186.4872              3201.6807              3202.6413
 Red. masses --      1.0882                 1.0966                 1.0966
 Frc consts  --      6.5103                 6.6232                 6.6272
 IR Inten    --     26.7875                33.4513                 0.0000

 - Thermochemistry -
 -------------------
 Temperature   298.150 Kelvin.  Pressure   1.00000 Atm.
 Atom     1 has atomic number  6 and mass  12.00000

 Molecular mass:   128.06260 amu.
 Principal axes and moments of inertia in atomic units:
                           1         2         3
     Eigenvalues --   567.175211502.719472069.89468
           X            1.00000   0.00000  -0.00000
           Y           -0.00000   1.00000  -0.00000
           Z            0.00000   0.00000   1.00000
 This molecule is an asymmetric top.
 Rotational symmetry number  1.
 Warning -- assumption of classical behavior for rotation
           may cause significant error
 Rotational temperatures (Kelvin)      0.15271     0.05764     0.04184
 Rotational constants (GHZ):           3.18198     1.20098     0.87190
 Zero-point vibrational energy     373909.8 (Joules/Mol)
                                   89.36658 (Kcal/Mol)
 Warning -- explicit consideration of  10 degrees of freedom as
           vibrations may cause significant error
 Vibrational temperatures:    222.39   229.54   384.19   515.52   552.23
          (Kelvin)            670.79   687.91   688.36   728.14   812.00
                              980.46   985.29  1048.07  1056.82  1092.35
                             1149.09  1173.38  1212.16  1220.57  1267.19
                             1272.02  1328.50  1453.66  1503.52  1522.94
                             1561.72  1697.62  1698.52  1769.63  1799.56
                             1855.58  2009.23  2035.64  2051.78  2067.81
                             2135.04  2143.52  2144.61  2267.73  2315.43
                             4558.05  4561.47  4562.87  4568.14  4581.92
                             4584.64  4606.50  4607.89

 Zero-point correction=                           0.142415 (Hartree/Particle)
 Thermal correction to Energy=                    0.150012
 Thermal correction to Enthalpy=                  0.150956
 Thermal correction to Gibbs Free Energy=         0.110609
 Sum of electronic and zero-point Energies=           -385.740602
 Sum of electronic and thermal Energies=              -385.733004
 Sum of electronic and thermal Enthalpies=            -385.732060
 Sum of electronic and thermal Free Energies=         -385.772408

                     E (Thermal)             CV                S
                      KCal/Mol        Cal/Mol-Kelvin    Cal/Mol-Kelvin
 Total                   94.134             31.749             84.919
 Electronic               0.000              0.000              0.000
 Translational            0.889              2.981             40.455
 Rotational               0.889              2.981             28.958
 Vibrational             92.357             25.788             15.506
 Vibration     1          0.620              1.898              2.615
 Vibration     2          0.621              1.892              2.555
 Vibration     3          0.672              1.734              1.615
 Vibration     4          0.733              1.558              1.129
 Vibration     5          0.753              1.505              1.024
 Vibration     6          0.824              1.325              0.748
 Vibration     7          0.835              1.299              0.715
 Vibration     8          0.835              1.298              0.714
 Vibration     9          0.861              1.237              0.643
 Vibration    10          0.920              1.108              0.515

 Optimization completed.
    -- Stationary point found.
 Normal termination of Gaussian 16 at Fri Apr  5 15:31:19 2024.
 Gaussian 16:  ES64L-G16RevC.01  3-Jul-2019

 ----------------------------------------------------------------------
 #p B3LYP/def2TZVP Freq(ReadFC, FC, ReadFCHT, Print=Matrix=JK, TimeDepe
 ndent) geom=check guess=read
 ----------------------------------------------------------------------

 Error termination via Lnk1e in /apps/gaussian/g16-c01-avx2/g16/l1.exe at Fri Apr  5 15:31:19 2024.
