 Gaussian 16, Revision C.01,

 --------------------------------------------
 #p opt freq b3lyp/def2tzvp geom=connectivity
 --------------------------------------------

 Ground state optimization and frequency calculation for cationic napht
 halene.
 ----------------------------------------------------------------------
 Symbolic Z-matrix:
 Charge =  1 Multiplicity = 2

 SCF Done:  E(UB3LYP) =  -385.739393678     A.U. after   15 cycles
 SCF Done:  E(UB3LYP) =  -385.744072081     A.U. after   13 cycles
 SCF Done:  E(UB3LYP) =  -385.744468346     A.U. after   11 cycles
 SCF Done:  E(UB3LYP) =  -385.744494810     A.U. after    9 cycles
 Optimization completed.
    -- Stationary point found.
 Normal termination of Gaussian 16 at Wed Apr  3 15:30:18 2024.

 --------------------------------------------------------------------
 #P Geom=AllCheck Guess=TCheck SCRF=Check GenChk UB3LYP/def2TZVP Freq
 --------------------------------------------------------------------

 ----------------------------------------------------------------------
 Ground state optimization and frequency calculation for cationic napht
 halene.
 ----------------------------------------------------------------------
 Charge =  1 Multiplicity = 2

 SCF Done:  E(UB3LYP) =  -385.744494810     A.U. after    1 cycles
 Optimization completed.
 Normal termination of Gaussian 16 at Wed Apr  3 15:34:27 2024.

 ----------------------------------------------------------------------
 #p opt freq=savenormalmodes b3lyp/def2tzvp TD=(nstates=2, Root=1) geom
 =check
 ----------------------------------------------------------------------

 ---------------------------------------------------------------------
 Cationic naphthalene TD-DFT excitation/optimization freq calculation.
 ---------------------------------------------------------------------
 Structure from the checkpoint file:  "Naphthalene_c_20-500-2.chk"
 Charge =  1 Multiplicity = 2

 SCF Done:  E(UB3LYP) =  -385.744494810     A.U. after   15 cycles
 Total Energy, E(TD-HF/TD-DFT) =  -385.702410815
 SCF Done:  E(UB3LYP) =  -385.735183551     A.U. after   13 cycles
 Total Energy, E(TD-HF/TD-DFT) =  -385.713561187
 SCF Done:  E(UB3LYP) =  -385.732732718     A.U. after   14 cycles
 Total Energy, E(TD-HF/TD-DFT) =  -385.714243679
 SCF Done:  E(UB3LYP) =  -385.732426292     A.U. after    8 cycles
 Total Energy, E(TD-HF/TD-DFT) =  -385.714278777
 SCF Done:  E(UB3LYP) =  -385.732448493     A.U. after    7 cycles
 Total Energy, E(TD-HF/TD-DFT) =  -385.714280232
    -- Stationary point found.
 Normal termination of Gaussian 16 at Wed Apr  3 16:03:23 2024.

 ----------------------------------------------------------------------
 #P Geom=AllCheck Guess=TCheck SCRF=Check GenChk UB3LYP TD(FC,Read)/def
 2TZVP Freq
 ----------------------------------------------------------------------

 Structure from the checkpoint file:  "Naphthalene_c_20-500-2.chk"
 ---------------------------------------------------------------------
 Cationic naphthalene TD-DFT excitation/optimization freq calculation.
 ---------------------------------------------------------------------
 Charge =  1 Multiplicity = 2

 SCF Done:  E(UB3LYP) =  -385.732448493     A.U. after    1 cycles

 Excitation energies and oscillator strengths:

 Excited State   1:  2.019-A      0.4944 eV 2507.88 nm  f=0.0000  <S**2>=0.769
     33B -> 34B        1.00033
 This state for optimization and/or second-order correction.
 Total Energy, E(TD-HF/TD-DFT) =  -385.714280448
 Copying the excited state density for this state as the 1-particle RhoCI density.

 Excited State   2:  2.015-A      2.0533 eV  603.82 nm  f=0.0514  <S**2>=0.765
     33A -> 36A        0.11460
     34A -> 35A        0.16817
     32B -> 34B        0.97590

 The electronic state is 2-A.
 Alpha  occ. eigenvalues --  -10.38217 -10.38215 -10.38213 -10.38213 -10.37689
 Alpha  occ. eigenvalues --  -10.37661 -10.37138 -10.37137 -10.37101 -10.37101
 Alpha  occ. eigenvalues --   -1.06882  -1.01686  -0.97941  -0.92667  -0.92307
 Alpha  occ. eigenvalues --   -0.81102  -0.80971  -0.78445  -0.70542  -0.70034
 Alpha  occ. eigenvalues --   -0.68402  -0.64279  -0.62347  -0.61716  -0.60947
 Alpha  occ. eigenvalues --   -0.59012  -0.58814  -0.55162  -0.53399  -0.52576
 Alpha  occ. eigenvalues --   -0.51749  -0.49678  -0.43030  -0.42816
 Alpha virt. eigenvalues --   -0.23933  -0.21204  -0.17295  -0.10503  -0.09670
 Alpha virt. eigenvalues --   -0.08597  -0.08161  -0.04867  -0.04617  -0.03831
 Alpha virt. eigenvalues --   -0.03758  -0.02685  -0.02171   0.00526   0.00874

  Beta  occ. eigenvalues --  -10.37881 -10.37879 -10.37870 -10.37869 -10.37770
  Beta  occ. eigenvalues --  -10.37744 -10.37057 -10.37056 -10.37019 -10.37019
  Beta  occ. eigenvalues --   -1.06400  -1.00974  -0.97126  -0.92176  -0.91522
  Beta  occ. eigenvalues --   -0.80695  -0.80619  -0.78077  -0.70294  -0.69646
  Beta  occ. eigenvalues --   -0.68186  -0.64052  -0.62291  -0.61442  -0.60682
  Beta  occ. eigenvalues --   -0.58780  -0.57495  -0.55086  -0.53173  -0.51676
  Beta  occ. eigenvalues --   -0.50493  -0.47019  -0.42605
  Beta virt. eigenvalues --   -0.36365  -0.21689  -0.20326  -0.15757  -0.09589
  Beta virt. eigenvalues --   -0.08899  -0.08498  -0.08070  -0.04757  -0.04547
  Beta virt. eigenvalues --   -0.03756  -0.03610  -0.02503  -0.01705   0.00789

 Mulliken charges and spin densities:
               1          2
     1  C   -0.068928   0.050747
     2  C   -0.085105   0.248154
     3  C    0.107337  -0.076749
     4  C    0.107338  -0.076749
     5  C   -0.085104   0.248154
     6  C   -0.068928   0.050747
     7  H    0.171781  -0.007466
     8  H    0.178584  -0.003060
     9  H    0.171780  -0.007466
    10  C   -0.085106   0.248154
    11  C   -0.085106   0.248154
    12  H    0.171780  -0.007466
    13  H    0.178584  -0.003060
    14  C   -0.068930   0.050747
    15  C   -0.068930   0.050747
    16  H    0.171781  -0.007466
    17  H    0.178585  -0.003060
    18  H    0.178585  -0.003060
 Sum of Mulliken charges =   1.00000   1.00000

 Dipole moment (field-independent basis, Debye):
    X=              0.0000    Y=              0.0000    Z=              0.0000  Tot=              0.0000
 Quadrupole moment (field-independent basis, Debye-Ang):
   XX=            -26.8371   YY=            -36.5419   ZZ=            -59.1754
   XY=             -0.0000   XZ=              0.0000   YZ=             -0.0000

  Exact polarizability:     176.776      -0.000     107.790       0.000       0.000      52.573
 Approx polarizability:     334.636       0.000     229.044      -0.000      -0.000      86.162

 Optimization completed.
    -- Stationary point found.
 Normal termination of Gaussian 16 at Wed Apr  3 16:16:58 2024.

 ------------------------------------------------------------------
 #p B3LYP/def2TZVP Freq(ReadFC, FC, ReadFCHT) geom=check guess=read
 ------------------------------------------------------------------

 Franck-Condon Analysis of neutral naphthalene for the absorption spect
 ra.
 ----------------------------------------------------------------------
 Structure from the checkpoint file:  "Naphthalene_c_20-500-1.chk"
 Charge =  1 Multiplicity = 2

 Normal termination of Gaussian 16 at Wed Apr  3 16:17:21 2024.

 ----------------------------------------------------------------------
 #p B3LYP/def2TZVP Freq(ReadFC, FC, ReadFCHT, emission) geom=check gues
 s=read
 ----------------------------------------------------------------------

 Franck-Condon Analysis of neutral naphthalene for the emission spectra
 .
 ----------------------------------------------------------------------
 Structure from the checkpoint file:  "Naphthalene_c_20-500-1.chk"
 Charge =  1 Multiplicity = 2

 Normal termination of Gaussian 16 at Wed Apr  3 16:17:42 2024.
 Normal termination of Gaussian 16 at Wed Apr  3 16:18:04 2024.
 Gaussian 16:  ES64L-G16RevC.01  3-Jul-2019

                         Standard orientation:
 ---------------------------------------------------------------------
 Center     Atomic      Atomic             Coordinates (Angstroms)
 Number     Number       Type             X           Y           Z
 ---------------------------------------------------------------------
      1          6           0       -2.442513   -0.692888   -0.000002
      2          6           0       -1.231541   -1.396524   -0.000003
      3          6           0       -0.000013   -0.713197    0.000003
      4          6           0        0.000021    0.713191    0.000002
      5          6           0       -1.231483    1.396532   -0.000000
      6          6           0       -2.442482    0.692926   -0.000001
      7          1           0        1.238462   -2.479539    0.000004
      8          1           0       -3.377603   -1.236594   -0.000004
      9          1           0       -1.238516   -2.479520    0.000003
     10          6           0        1.231489   -1.396543    0.000005
     11          6           0        1.231543    1.396533    0.000002
     12          1           0       -1.238469    2.479529    0.000006
     13          1           0       -3.377548    1.236675   -0.000003
     14          6           0        2.442504    0.692892   -0.000004
     15          6           0        2.442478   -0.692921   -0.000002
     16          1           0        1.238504    2.479526    0.000005
     17          1           0        3.377603    1.236586   -0.000005
     18          1           0        3.377549   -1.236662   -0.000007
 ---------------------------------------------------------------------

                      1                      2                      3
                      A                      A                      A
 Frequencies --    156.8117               182.5769               194.3201
 Red. masses --      4.1845                 3.4653                 4.5148
 Frc consts  --      0.0606                 0.0681                 0.1004
 IR Inten    --      2.6658                 0.0000                 0.0000

                      4                      5                      6
                      A                      A                      A
 Frequencies --    359.8865               377.5220               428.0662
 Red. masses --      3.8806                 2.8512                 2.5023
 Frc consts  --      0.2961                 0.2394                 0.2702
 IR Inten    --      0.1097                 0.0000                20.5417

                      7                      8                      9
                      A                      A                      A
 Frequencies --    442.2361               503.6353               567.1154
 Red. masses --      3.1069                 6.8654                 2.3046
 Frc consts  --      0.3580                 1.0260                 0.4367
 IR Inten    --      0.0000                 0.0000                 0.0000

                     10                     11                     12
                      A                      A                      A
 Frequencies --    610.9461               757.1484               765.9001
 Red. masses --      6.6826                 1.1337                 2.8489
 Frc consts  --      1.4696                 0.3829                 0.9846
 IR Inten    --      8.7254                 0.0000                 0.0000

                     13                     14                     15
                      A                      A                      A
 Frequencies --    775.7439               781.6664               811.7980
 Red. masses --      4.6368                 1.2549                 5.3202
 Frc consts  --      1.6440                 0.4518                 2.0657
 IR Inten    --      0.0000                98.6022                 0.0002

                     16                     17                     18
                      A                      A                      A
 Frequencies --    880.0861               946.1987               951.3793
 Red. masses --      1.3770                 5.2812                 1.6147
 Frc consts  --      0.6284                 2.7858                 0.8611
 IR Inten    --      0.0000                 0.0000                 0.0000

                     19                     20                     21
                      A                      A                      A
 Frequencies --    984.1278              1007.2545              1031.8241
 Red. masses --      1.3894                 1.5187                 1.4236
 Frc consts  --      0.7928                 0.9078                 0.8930
 IR Inten    --      0.0000                 2.0849                 0.0000

                     22                     23                     24
                      A                      A                      A
 Frequencies --   1035.1789              1040.4782              1061.9922
 Red. masses --      1.4643                 2.9936                 1.9936
 Frc consts  --      0.9245                 1.9095                 1.3247
 IR Inten    --      0.0000                13.0213                 0.0000

                     25                     26                     27
                      A                      A                      A
 Frequencies --   1085.2453              1126.3697              1194.1242
 Red. masses --      1.6061                 1.8649                 1.2012
 Frc consts  --      1.1145                 1.3940                 1.0092
 IR Inten    --      0.0000                 4.5285                14.5746

                     28                     29                     30
                      A                      A                      A
 Frequencies --   1199.6943              1237.8982              1259.8577
 Red. masses --      1.1032                 1.7842                 1.9660
 Frc consts  --      0.9355                 1.6109                 1.8386
 IR Inten    --      0.0000               213.5539                 0.0000

                     31                     32                     33
                      A                      A                      A
 Frequencies --   1308.4890              1404.8042              1414.2091
 Red. masses --      1.9113                11.6056                 4.7852
 Frc consts  --      1.9281                13.4943                 5.6387
 IR Inten    --      9.3658                 0.0000                20.3237

                     34                     35                     36
                      A                      A                      A
 Frequencies --   1439.3305              1474.1750              1506.0639
 Red. masses --      1.5858                 1.8694                 1.9074
 Frc consts  --      1.9356                 2.3936                 2.5491
 IR Inten    --     21.7007                 0.0000                 0.0000

                     37                     38                     39
                      A                      A                      A
 Frequencies --   1508.8051              1552.2682              1571.6286
 Red. masses --      3.3934                 3.6260                 3.0138
 Frc consts  --      4.5514                 5.1476                 4.3860
 IR Inten    --      0.0000                83.5218                25.8989

                     40                     41                     42
                      A                      A                      A
 Frequencies --   1623.0735              3185.1598              3190.8632
 Red. masses --      5.8642                 1.1058                 1.0978
 Frc consts  --      9.1019                 6.6096                 6.5856
 IR Inten    --      0.0000                 0.0000                 0.0000

                     43                     44                     45
                      A                      A                      A
 Frequencies --   3191.0656              3191.8264              3200.9173
 Red. masses --      1.0898                 1.0912                 1.1021
 Frc consts  --      6.5381                 6.5501                 6.6528
 IR Inten    --      0.3379                 0.5710                 0.0000

                     46                     47                     48
                      A                      A                      A
 Frequencies --   3204.7845              3214.8335              3214.8479
 Red. masses --      1.0918                 1.0974                 1.0978
 Frc consts  --      6.6066                 6.6826                 6.6850
 IR Inten    --      0.8739                 2.3904                 0.1376

 - Thermochemistry -
 -------------------
 Temperature   298.150 Kelvin.  Pressure   1.00000 Atm.
 Atom     1 has atomic number  6 and mass  12.00000

 Molecular mass:   128.06260 amu.
 Principal axes and moments of inertia in atomic units:
                           1         2         3
     Eigenvalues --   570.718301468.878832039.59713
           X            1.00000  -0.00000  -0.00000
           Y            0.00000   1.00000   0.00000
           Z            0.00000  -0.00000   1.00000
 This molecule is an asymmetric top.
 Rotational symmetry number  1.
 Warning -- assumption of classical behavior for rotation
           may cause significant error
 Rotational temperatures (Kelvin)      0.15176     0.05897     0.04247
 Rotational constants (GHZ):           3.16223     1.22865     0.88485
 Zero-point vibrational energy     383727.5 (Joules/Mol)
                                   91.71307 (Kcal/Mol)
 Warning -- explicit consideration of  10 degrees of freedom as
           vibrations may cause significant error
 Vibrational temperatures:    225.62   262.69   279.58   517.80   543.17
          (Kelvin)            615.89   636.28   724.62   815.95   879.02
                             1089.37  1101.96  1116.12  1124.64  1168.00
                             1266.25  1361.37  1368.82  1415.94  1449.21
                             1484.56  1489.39  1497.02  1527.97  1561.43
                             1620.59  1718.08  1726.09  1781.06  1812.65
                             1882.62  2021.20  2034.73  2070.88  2121.01
                             2166.89  2170.83  2233.37  2261.22  2335.24
                             4582.73  4590.94  4591.23  4592.33  4605.41
                             4610.97  4625.43  4625.45

 Zero-point correction=                           0.146154 (Hartree/Particle)
 Thermal correction to Energy=                    0.153507
 Thermal correction to Enthalpy=                  0.154452
 Thermal correction to Gibbs Free Energy=         0.113728
 Sum of electronic and zero-point Energies=           -385.598341
 Sum of electronic and thermal Energies=              -385.590987
 Sum of electronic and thermal Enthalpies=            -385.590043
 Sum of electronic and thermal Free Energies=         -385.630767

                     E (Thermal)             CV                S
                      KCal/Mol        Cal/Mol-Kelvin    Cal/Mol-Kelvin
 Total                   96.327             29.870             85.710
 Electronic               0.000              0.000              1.377
 Translational            0.889              2.981             40.455
 Rotational               0.889              2.981             28.927
 Vibrational             94.550             23.909             14.951
 Vibration     1          0.620              1.895              2.588
 Vibration     2          0.630              1.863              2.302
 Vibration     3          0.635              1.848              2.186
 Vibration     4          0.734              1.555              1.123
 Vibration     5          0.748              1.518              1.049
 Vibration     6          0.790              1.409              0.865
 Vibration     7          0.802              1.378              0.820
 Vibration     8          0.859              1.242              0.649
 Vibration     9          0.923              1.102              0.510
 Vibration    10          0.970              1.009              0.431

 Error termination via Lnk1e in /apps/gaussian/g16-c01-avx2/g16/l718.exe at Wed Apr  3 16:18:11 2024.
