 Gaussian 16, Revision C.01,

 ---------------------------------------
 #p HF/6-31G* geom=connectivity Opt Freq
 ---------------------------------------

 --------------------------------------------------------------------
 Ground state optimization and frequency calculation for formaldehyde
 --------------------------------------------------------------------
 Symbolic Z-matrix:
 Charge =  0 Multiplicity = 1

 SCF Done:  E(RHF) =  -113.857022097     A.U. after   11 cycles
 SCF Done:  E(RHF) =  -113.865988522     A.U. after   10 cycles
 SCF Done:  E(RHF) =  -113.866328316     A.U. after    9 cycles
 SCF Done:  E(RHF) =  -113.866331245     A.U. after    8 cycles
 Optimization completed.
    -- Stationary point found.
 Normal termination of Gaussian 16 at Fri Feb 23 12:25:16 2024.

 -----------------------------------------------------------------
 #P Geom=AllCheck Guess=TCheck SCRF=Check GenChk RHF/6-31G(d) Freq
 -----------------------------------------------------------------

 Structure from the checkpoint file:  "6-31G_job1.chk"
 --------------------------------------------------------------------
 Ground state optimization and frequency calculation for formaldehyde
 --------------------------------------------------------------------
 Charge =  0 Multiplicity = 1

 SCF Done:  E(RHF) =  -113.866331245     A.U. after    1 cycles
 Optimization completed.
 Normal termination of Gaussian 16 at Fri Feb 23 12:25:24 2024.

 ----------------------------------------------------------------
 #p CIS/6-31G* CIS=(nstates=2, Root=1) geom=check Density=Current
 ----------------------------------------------------------------

 CIS/6-31G* for formaldehyde, calculating the first two excited states
 and looking at the first one.
 ----------------------------------------------------------------------
 Structure from the checkpoint file:  "6-31G_job2.chk"
 Charge =  0 Multiplicity = 1

 SCF Done:  E(RHF) =  -113.866331245     A.U. after   11 cycles
 Total Energy, E(TD-HF/TD-DFT) =  -113.696431172
 Normal termination of Gaussian 16 at Fri Feb 23 12:25:33 2024.

 ----------------------------------------------------
 #p CIS(Root=1)/6-31G* geom=check Density=Current Opt
 ----------------------------------------------------

 CIS/6-31G for formaldehyde, optimizing its first excited state geometr
 y.
 ----------------------------------------------------------------------
 Structure from the checkpoint file:  "6-31G_job3.chk"
 Charge =  0 Multiplicity = 1

 SCF Done:  E(RHF) =  -113.866331245     A.U. after   11 cycles
 SCF Done:  E(RHF) =  -113.860741866     A.U. after   11 cycles
 SCF Done:  E(RHF) =  -113.857258937     A.U. after   10 cycles
 SCF Done:  E(RHF) =  -113.856922992     A.U. after    9 cycles
 SCF Done:  E(RHF) =  -113.856995566     A.U. after    8 cycles
    -- Stationary point found.
 Normal termination of Gaussian 16 at Fri Feb 23 12:25:38 2024.
 Gaussian 16:  ES64L-G16RevC.01  3-Jul-2019

 -----------------------------------------------------
 #p CIS(Root=1)/6-31G* geom=check Density=Current Freq
 -----------------------------------------------------

 CIS/6-31G* for formaldehyde, performing a frequency calculation on the
  first excited state.
 ----------------------------------------------------------------------
 Structure from the checkpoint file:  "6-31G_job4.chk"
 Charge =  0 Multiplicity = 1

                         Standard orientation:
 ---------------------------------------------------------------------
 Center     Atomic      Atomic             Coordinates (Angstroms)
 Number     Number       Type             X           Y           Z
 ---------------------------------------------------------------------
      1          6           0        0.000000    0.000000   -0.563281
      2          1           0        0.000000   -0.942942   -1.090618
      3          1           0        0.000000    0.942942   -1.090618
      4          8           0       -0.000000   -0.000000    0.695115
 ---------------------------------------------------------------------

 SCF Done:  E(RHF) =  -113.856995566     A.U. after   11 cycles

 Excitation energies and oscillator strengths:

 Excited State   1:      Singlet-A2     4.3032 eV  288.12 nm  f=0.0000  <S**2>=0.000
       8 ->  9         0.69722
 This state for optimization and/or second-order correction.
 Total Energy, E(CIS/TDA) =  -113.698854751
 Copying the excited state density for this state as the 1-particle RhoCI density.

 Excited State   2:      Singlet-B1     8.9934 eV  137.86 nm  f=0.0013  <S**2>=0.000
       6 ->  9         0.69780

 Excited State   3:      Singlet-A1     9.4578 eV  131.09 nm  f=0.2456  <S**2>=0.000
       6 -> 12        -0.10655
       7 ->  9         0.66708
       8 -> 11        -0.12020

 The electronic state is 1-A1.
 Alpha  occ. eigenvalues --  -20.58343 -11.34460  -1.36813  -0.87912  -0.69318
 Alpha  occ. eigenvalues --   -0.62779  -0.50709  -0.44483
 Alpha virt. eigenvalues --    0.12433   0.24642   0.32839   0.36945   0.73969
 Alpha virt. eigenvalues --    0.79828   0.84807   0.90256   1.10958   1.11209
 Alpha virt. eigenvalues --    1.13795   1.27267   1.33513   1.61142   1.77447

 Mulliken charges:
               1
     1  C   -0.274333
     2  H    0.228362
     3  H    0.228362
     4  O   -0.182391
 Sum of Mulliken charges =  -0.00000

 Dipole moment (field-independent basis, Debye):
    X=              0.0000    Y=              0.0000    Z=             -1.4322  Tot=              1.4322
 Quadrupole moment (field-independent basis, Debye-Ang):
   XX=            -13.4385   YY=            -10.0817   ZZ=            -11.5868
   XY=              0.0000   XZ=             -0.0000   YZ=             -0.0000

  Exact polarizability:       7.285       0.000      11.910      -0.000       0.000      18.567
 Approx polarizability:       6.426       0.000       9.862      -0.000      -0.000      17.657

 ******    1 imaginary frequencies (negative Signs) ******

                      1                      2                      3
                     B1                     B2                     A1
 Frequencies --   -426.7447               980.6928              1438.1129
 Red. masses --      1.3313                 1.3127                 1.0775
 Frc consts  --      0.1428                 0.7438                 1.3130
 IR Inten    --    175.6204                 2.4937                43.3411

                      4                      5                      6
                     A1                     A1                     B2
 Frequencies --   1677.7821              3251.3170              3353.9223
 Red. masses --      9.0698                 1.0430                 1.1154
 Frc consts  --     15.0424                 6.4963                 7.3923
 IR Inten    --      1.2784                38.6605                 1.3983

 - Thermochemistry -
 -------------------
 Temperature   298.150 Kelvin.  Pressure   1.00000 Atm.
 Atom     1 has atomic number  6 and mass  12.00000

 Molecular mass:    30.01056 amu.
 Principal axes and moments of inertia in atomic units:
                           1         2         3
     Eigenvalues --     6.40005  49.20172  55.60176
           X            0.00000  -0.00000   1.00000
           Y            0.00000   1.00000   0.00000
           Z            1.00000  -0.00000  -0.00000
 This molecule is an asymmetric top.
 Rotational symmetry number  2.
 Rotational temperatures (Kelvin)     13.53333     1.76038     1.55775
 Rotational constants (GHZ):         281.98872    36.68045    32.45834
    1 imaginary frequencies ignored.
 Zero-point vibrational energy      64011.1 (Joules/Mol)
                                   15.29903 (Kcal/Mol)
 Vibrational temperatures:   1411.00  2069.12  2413.95  4677.92  4825.55
          (Kelvin)

 Zero-point correction=                           0.024381 (Hartree/Particle)
 Thermal correction to Energy=                    0.027261
 Thermal correction to Enthalpy=                  0.028206
 Thermal correction to Gibbs Free Energy=         0.003316
 Sum of electronic and zero-point Energies=           -113.674474
 Sum of electronic and thermal Energies=              -113.671593
 Sum of electronic and thermal Enthalpies=            -113.670649
 Sum of electronic and thermal Free Energies=         -113.695539

                     E (Thermal)             CV                S
                      KCal/Mol        Cal/Mol-Kelvin    Cal/Mol-Kelvin
 Total                   17.107              6.493             52.386
 Electronic               0.000              0.000              0.000
 Translational            0.889              2.981             36.130
 Rotational               0.889              2.981             16.133
 Vibrational             15.329              0.532              0.122

 Optimization completed.
    -- Stationary point found.
 Normal termination of Gaussian 16 at Fri Feb 23 12:25:45 2024.
