 Gaussian 16, Revision C.01,
 Gaussian 16:  ES64L-G16RevC.01  3-Jul-2019

 ---------------------------------------------------------------
 # CIS(Root=1)/6-31g* geom=connectivity Density=Current Opt Freq
 ---------------------------------------------------------------

 Re-optimization and frequency calculation of manually displaced first
 excited state
 ----------------------------------------------------------------------
 Symbolic Z-matrix:
 Charge =  0 Multiplicity = 1

 SCF Done:  E(RHF) =  -113.823397056     A.U. after   13 cycles
 SCF Done:  E(RHF) =  -113.833713448     A.U. after   12 cycles
 SCF Done:  E(RHF) =  -113.839190500     A.U. after   12 cycles
 SCF Done:  E(RHF) =  -113.845224617     A.U. after   11 cycles
 SCF Done:  E(RHF) =  -113.845304663     A.U. after    9 cycles
 Optimization completed.
    -- Stationary point found.
 Normal termination of Gaussian 16 at Fri Feb 23 12:40:58 2024.

 ----------------------------------------------------------------------
 #N Geom=AllCheck Guess=TCheck SCRF=Check GenChk RCIS(FC,Read)/6-31G(d)
  Freq
 ----------------------------------------------------------------------

 ----------------------------------------------------------------------
 Re-optimization and frequency calculation of manually displaced first
 excited state
 ----------------------------------------------------------------------
 Charge =  0 Multiplicity = 1

                         Standard orientation:
 ---------------------------------------------------------------------
 Center     Atomic      Atomic             Coordinates (Angstroms)
 Number     Number       Type             X           Y           Z
 ---------------------------------------------------------------------
      1          6           0        0.032862    0.566956   -0.000000
      2          1           0       -0.230037    1.063631    0.927930
      3          1           0       -0.230037    1.063631   -0.927930
      4          8           0        0.032862   -0.691125    0.000000
 ---------------------------------------------------------------------

 SCF Done:  E(RHF) =  -113.845304663     A.U. after    1 cycles

 Excitation energies and oscillator strengths:

 Excited State   1:      Singlet-A"     3.9685 eV  312.42 nm  f=0.0008  <S**2>=0.000
       8 ->  9         0.69091
 This state for optimization and/or second-order correction.
 Total Energy, E(CIS/TDA) =  -113.699465340
 Copying the excited state density for this state as the 1-particle RhoCI density.

 Excited State   2:      Singlet-A'     8.5341 eV  145.28 nm  f=0.0348  <S**2>=0.000
       6 ->  9         0.61277
       7 ->  9        -0.31350

 Excited State   3:      Singlet-A'     9.4027 eV  131.86 nm  f=0.2299  <S**2>=0.000
       6 ->  9         0.32317
       7 ->  9         0.58827
       8 -> 11         0.10939

 The electronic state is 1-A'.
 Alpha  occ. eigenvalues --  -20.58752 -11.34356  -1.37101  -0.87712  -0.68779
 Alpha  occ. eigenvalues --   -0.62897  -0.50795  -0.44345
 Alpha virt. eigenvalues --    0.10957   0.25366   0.32552   0.36993   0.73888
 Alpha virt. eigenvalues --    0.81360   0.83528   0.90302   1.10114   1.11362
 Alpha virt. eigenvalues --    1.13933   1.27347   1.30188   1.61261   1.77369

 Mulliken charges:
               1
     1  C   -0.254398
     2  H    0.221113
     3  H    0.221113
     4  O   -0.187829
 Sum of Mulliken charges =   0.00000

 Dipole moment (field-independent basis, Debye):
    X=             -0.6660    Y=              1.3511    Z=              0.0000  Tot=              1.5064
 Quadrupole moment (field-independent basis, Debye-Ang):
   XX=            -13.2702   YY=            -11.7914   ZZ=            -10.2360
   XY=             -0.6891   XZ=             -0.0000   YZ=              0.0000

  Exact polarizability:       7.644      -0.939      18.785      -0.000       0.000      12.291
 Approx polarizability:       7.085      -0.079      17.624      -0.000      -0.000       9.858

                      1                      2                      3
                     A'                     A"                     A'
 Frequencies --    564.4496               994.4429              1438.0461
 Red. masses --      1.3230                 1.2875                 1.0707
 Frc consts  --      0.2484                 0.7502                 1.3046
 IR Inten    --    107.9565                 3.4416                52.0168

                      4                      5                      6
                     A'                     A'                     A"
 Frequencies --   1660.5032              3208.1046              3298.1963
 Red. masses --      9.9164                 1.0438                 1.1105
 Frc consts  --     16.1096                 6.3293                 7.1174
 IR Inten    --      2.0959                29.5022                 0.0099

 - Thermochemistry -
 -------------------
 Temperature   298.150 Kelvin.  Pressure   1.00000 Atm.
 Atom     1 has atomic number  6 and mass  12.00000

 Molecular mass:    30.01056 amu.
 Principal axes and moments of inertia in atomic units:
                           1         2         3
     Eigenvalues --     6.56666  49.13655  54.96566
           X           -0.04438   0.00000   0.99901
           Y            0.99901   0.00000   0.04438
           Z           -0.00000   1.00000  -0.00000
 This molecule is an asymmetric top.
 Rotational symmetry number  1.
 Rotational temperatures (Kelvin)     13.18994     1.76272     1.57578
 Rotational constants (GHZ):         274.83382    36.72910    32.83398
 Zero-point vibrational energy      66774.0 (Joules/Mol)
                                   15.95937 (Kcal/Mol)
 Warning -- explicit consideration of   1 degrees of freedom as
           vibrations may cause significant error
 Vibrational temperatures:    812.12  1430.78  2069.03  2389.09  4615.75
          (Kelvin)           4745.37

 Zero-point correction=                           0.025433 (Hartree/Particle)
 Thermal correction to Energy=                    0.028493
 Thermal correction to Enthalpy=                  0.029437
 Thermal correction to Gibbs Free Energy=         0.003644
 Sum of electronic and zero-point Energies=           -113.674032
 Sum of electronic and thermal Energies=              -113.670973
 Sum of electronic and thermal Enthalpies=            -113.670029
 Sum of electronic and thermal Free Energies=         -113.695822

                     E (Thermal)             CV                S
                      KCal/Mol        Cal/Mol-Kelvin    Cal/Mol-Kelvin
 Total                   17.879              7.588             54.286
 Electronic               0.000              0.000              0.000
 Translational            0.889              2.981             36.130
 Rotational               0.889              2.981             17.524
 Vibrational             16.102              1.627              0.632
 Vibration     1          0.920              1.108              0.515

 Optimization completed.
    -- Stationary point found.
 Normal termination of Gaussian 16 at Fri Feb 23 12:41:04 2024.
