 Gaussian 16, Revision C.01,

 --------------------------------------------
 #p opt freq b3lyp/def2tzvp geom=connectivity
 --------------------------------------------

 Ground state optimization and frequency calculation for cationic phena
 nthrene.
 ----------------------------------------------------------------------
 Symbolic Z-matrix:
 Charge =  1 Multiplicity = 2

 SCF Done:  E(UB3LYP) =  -539.445749274     A.U. after   24 cycles
 SCF Done:  E(UB3LYP) =  -539.452047075     A.U. after   16 cycles
 SCF Done:  E(UB3LYP) =  -539.452502542     A.U. after   19 cycles
 SCF Done:  E(UB3LYP) =  -539.452533738     A.U. after   10 cycles
 SCF Done:  E(UB3LYP) =  -539.452534549     A.U. after    7 cycles
 Optimization completed.
    -- Stationary point found.
 Normal termination of Gaussian 16 at Wed Apr  3 12:30:56 2024.

 --------------------------------------------------------------------
 #P Geom=AllCheck Guess=TCheck SCRF=Check GenChk UB3LYP/def2TZVP Freq
 --------------------------------------------------------------------

 ----------------------------------------------------------------------
 Ground state optimization and frequency calculation for cationic phena
 nthrene.
 ----------------------------------------------------------------------
 Charge =  1 Multiplicity = 2

                         Standard orientation:
 ---------------------------------------------------------------------
 Center     Atomic      Atomic             Coordinates (Angstroms)
 Number     Number       Type             X           Y           Z
 ---------------------------------------------------------------------
      1          6           0        3.573872   -0.280868    0.000036
      2          6           0        2.847917    0.886034    0.000176
      3          6           0        1.424611    0.857184    0.000120
      4          6           0        0.730761   -0.395840   -0.000011
      5          6           0        1.497500   -1.556324   -0.000213
      6          6           0        2.893754   -1.502012   -0.000183
      7          6           0        0.697713    2.053753    0.000088
      8          6           0       -0.730760   -0.395840    0.000009
      9          6           0       -1.424611    0.857184   -0.000121
     10          6           0       -0.697715    2.053753   -0.000088
     11          6           0       -2.847920    0.886033   -0.000176
     12          1           0       -3.347099    1.846825   -0.000319
     13          6           0       -3.573872   -0.280868   -0.000033
     14          6           0       -2.893750   -1.502014    0.000184
     15          6           0       -1.497499   -1.556326    0.000211
     16          1           0        1.229775    2.997050    0.000168
     17          1           0        4.654790   -0.258821    0.000076
     18          1           0        3.347098    1.846826    0.000318
     19          1           0        1.026681   -2.528708   -0.000433
     20          1           0        3.454407   -2.427891   -0.000339
     21          1           0       -1.229779    2.997049   -0.000169
     22          1           0       -4.654789   -0.258826   -0.000069
     23          1           0       -3.454406   -2.427892    0.000340
     24          1           0       -1.026678   -2.528709    0.000431
 ---------------------------------------------------------------------

 SCF Done:  E(UB3LYP) =  -539.452534549     A.U. after    1 cycles

 The electronic state is 2-A.
 Alpha  occ. eigenvalues --  -10.36823 -10.36766 -10.36101 -10.36069 -10.35788
 Alpha  occ. eigenvalues --  -10.35785 -10.34976 -10.34976 -10.34949 -10.34948
 Alpha  occ. eigenvalues --  -10.34411 -10.34409 -10.33158 -10.33158  -1.05921
 Alpha  occ. eigenvalues --   -1.02066  -0.98621  -0.94746  -0.92981  -0.89472
 Alpha  occ. eigenvalues --   -0.88928  -0.80296  -0.79921  -0.78087  -0.75021
 Alpha  occ. eigenvalues --   -0.70037  -0.69763  -0.66800  -0.64483  -0.64197
 Alpha  occ. eigenvalues --   -0.60849  -0.59760  -0.59174  -0.59048  -0.58103
 Alpha  occ. eigenvalues --   -0.57949  -0.56003  -0.53296  -0.52967  -0.52640
 Alpha  occ. eigenvalues --   -0.49954  -0.49682  -0.49618  -0.45754  -0.43964
 Alpha  occ. eigenvalues --   -0.39782  -0.39055
 Alpha virt. eigenvalues --   -0.22955  -0.20282  -0.17477  -0.14110  -0.10316
 Alpha virt. eigenvalues --   -0.08246  -0.08027  -0.07003  -0.04712  -0.04310
 Alpha virt. eigenvalues --   -0.03832  -0.03279  -0.02640  -0.02326  -0.00798

  Beta  occ. eigenvalues --  -10.36555 -10.36501 -10.36035 -10.36003 -10.35794
  Beta  occ. eigenvalues --  -10.35792 -10.34723 -10.34723 -10.34707 -10.34706
  Beta  occ. eigenvalues --  -10.34386 -10.34384 -10.33257 -10.33256  -1.05548
  Beta  occ. eigenvalues --   -1.01714  -0.98015  -0.94474  -0.92535  -0.89357
  Beta  occ. eigenvalues --   -0.88047  -0.79867  -0.79743  -0.77758  -0.74761
  Beta  occ. eigenvalues --   -0.69787  -0.69604  -0.66599  -0.64283  -0.64060
  Beta  occ. eigenvalues --   -0.60739  -0.59612  -0.59102  -0.58889  -0.57828
  Beta  occ. eigenvalues --   -0.56920  -0.55838  -0.52879  -0.52529  -0.52293
  Beta  occ. eigenvalues --   -0.49784  -0.49551  -0.47609  -0.45025  -0.42327
  Beta  occ. eigenvalues --   -0.39447
  Beta virt. eigenvalues --   -0.33366  -0.21021  -0.19627  -0.16218  -0.13287
  Beta virt. eigenvalues --   -0.09040  -0.08179  -0.07981  -0.06939  -0.04617
  Beta virt. eigenvalues --   -0.04275  -0.03160  -0.03102  -0.02525  -0.02280

 Mulliken charges and spin densities:
               1          2
     1  C   -0.100763  -0.065332
     2  C   -0.108248   0.161304
     3  C    0.118529  -0.010768
     4  C    0.085590   0.024975
     5  C   -0.141018   0.037364
     6  C   -0.051012   0.170947
     7  C   -0.094253   0.200549
     8  C    0.085593   0.024985
     9  C    0.118530  -0.010763
    10  C   -0.094253   0.200541
    11  C   -0.108251   0.161294
    12  H    0.155182  -0.006627
    13  C   -0.100763  -0.065332
    14  C   -0.051011   0.170951
    15  C   -0.141021   0.037355
    16  H    0.164249  -0.006277
    17  H    0.163122   0.002045
    18  H    0.155182  -0.006628
    19  H    0.142246  -0.000694
    20  H    0.166377  -0.007481
    21  H    0.164249  -0.006277
    22  H    0.163122   0.002045
    23  H    0.166378  -0.007481
    24  H    0.142245  -0.000694
 Sum of Mulliken charges =   1.00000   1.00000

 Dipole moment (field-independent basis, Debye):
    X=              0.0000    Y=              0.4734    Z=              0.0000  Tot=              0.4734
 Quadrupole moment (field-independent basis, Debye-Ang):
   XX=            -34.3102   YY=            -52.2076   ZZ=            -83.0419
   XY=              0.0000   XZ=              0.0001   YZ=             -0.0000

  Exact polarizability:     304.488      -0.000     173.816      -0.000      -0.000      71.475
 Approx polarizability:     529.756      -0.000     346.108      -0.001       0.000     121.019

                      1                      2                      3
                      A                      A                      A
 Frequencies --     79.1225               101.8265               214.6657
 Red. masses --      3.6775                 4.4074                 3.7474
 Frc consts  --      0.0136                 0.0269                 0.1017
 IR Inten    --      0.0000                 1.2615                 6.4001

                      4                      5                      6
                      A                      A                      A
 Frequencies --    234.7418               243.0495               384.6745
 Red. masses --      4.0294                 4.5768                 2.9264
 Frc consts  --      0.1308                 0.1593                 0.2551
 IR Inten    --      0.0000                 0.0043                 0.0000

                      7                      8                      9
                      A                      A                      A
 Frequencies --    408.4995               415.3967               438.3442
 Red. masses --      6.5515                 2.9215                 5.1420
 Frc consts  --      0.6441                 0.2970                 0.5821
 IR Inten    --      0.1741                 9.8037                 0.8913

                     10                     11                     12
                      A                      A                      A
 Frequencies --    480.6578               489.9629               494.8902
 Red. masses --      3.1827                 2.6005                 5.2600
 Frc consts  --      0.4332                 0.3678                 0.7590
 IR Inten    --      0.2520                 0.0000                 3.6473

                     13                     14                     15
                      A                      A                      A
 Frequencies --    553.4183               554.7058               599.4917
 Red. masses --      2.6523                 7.1731                 7.2012
 Frc consts  --      0.4786                 1.3004                 1.5248
 IR Inten    --      0.0000                 0.7198                47.8945

                     16                     17                     18
                      A                      A                      A
 Frequencies --    715.1707               720.0113               723.8432
 Red. masses --      5.6082                 2.3855                 5.7530
 Frc consts  --      1.6900                 0.7286                 1.7760
 IR Inten    --      0.0005                44.6808                 0.7301

                     19                     20                     21
                      A                      A                      A
 Frequencies --    779.1091               782.0115               805.2855
 Red. masses --      1.3406                 1.3243                 2.3164
 Frc consts  --      0.4795                 0.4772                 0.8851
 IR Inten    --     42.5527                 0.0000                 0.0000

                     22                     23                     24
                      A                      A                      A
 Frequencies --    846.4144               860.9743               880.8924
 Red. masses --      5.7156                 1.3137                 4.4081
 Frc consts  --      2.4126                 0.5738                 2.0154
 IR Inten    --      0.1015                40.0655                 5.8371

                     25                     26                     27
                      A                      A                      A
 Frequencies --    912.8819               917.6427               980.5011
 Red. masses --      1.4753                 1.9648                 1.4162
 Frc consts  --      0.7243                 0.9748                 0.8022
 IR Inten    --      7.5154                 0.0000                 0.0000

                     28                     29                     30
                      A                      A                      A
 Frequencies --    992.9754              1003.8590              1008.8839
 Red. masses --      1.4049                 1.5461                 6.6101
 Frc consts  --      0.8161                 0.9180                 3.9640
 IR Inten    --      2.8943                 0.0000                21.0284

                     31                     32                     33
                      A                      A                      A
 Frequencies --   1021.1102              1023.2102              1061.2486
 Red. masses --      1.4382                 1.4050                 2.0532
 Frc consts  --      0.8835                 0.8667                 1.3624
 IR Inten    --      0.0000                 0.5355                 5.4809

                     34                     35                     36
                      A                      A                      A
 Frequencies --   1063.3344              1117.3715              1157.5641
 Red. masses --      2.5808                 2.3120                 1.4024
 Frc consts  --      1.7193                 1.7007                 1.1071
 IR Inten    --      3.4700                 0.0186                26.0787

                     37                     38                     39
                      A                      A                      A
 Frequencies --   1164.4579              1165.4840              1202.3515
 Red. masses --      1.5691                 1.4556                 1.1604
 Frc consts  --      1.2536                 1.1649                 0.9884
 IR Inten    --      1.3825               143.5374                 3.9109

                     40                     41                     42
                      A                      A                      A
 Frequencies --   1241.9522              1253.6226              1284.0545
 Red. masses --      1.8491                 1.8105                 2.1086
 Frc consts  --      1.6805                 1.6764                 2.0484
 IR Inten    --     12.2201                49.1859                30.6686

                     43                     44                     45
                      A                      A                      A
 Frequencies --   1319.1562              1327.3018              1341.1462
 Red. masses --      1.8653                 2.5580                 2.4922
 Frc consts  --      1.9125                 2.6551                 2.6411
 IR Inten    --     15.0254                 0.0832               196.3132

                     46                     47                     48
                      A                      A                      A
 Frequencies --   1389.2850              1451.2573              1462.1652
 Red. masses --      5.6144                 2.7432                 2.1804
 Frc consts  --      6.3847                 3.4040                 2.7465
 IR Inten    --      0.3008                 3.1207                 0.2097

                     49                     50                     51
                      A                      A                      A
 Frequencies --   1462.7675              1468.1947              1542.4763
 Red. masses --      2.6164                 1.9668                 3.1838
 Frc consts  --      3.2985                 2.4979                 4.4631
 IR Inten    --     77.0520                 6.8830                12.5714

                     52                     53                     54
                      A                      A                      A
 Frequencies --   1557.9029              1559.9576              1584.3808
 Red. masses --      2.6375                 3.1932                 4.5668
 Frc consts  --      3.7716                 4.5783                 6.7543
 IR Inten    --      6.5050                11.2400               104.8407

                     55                     56                     57
                      A                      A                      A
 Frequencies --   1603.2211              1637.7478              3184.8860
 Red. masses --      4.6938                 5.3166                 1.0891
 Frc consts  --      7.1082                 8.4020                 6.5090
 IR Inten    --    210.9801                22.4385                 0.4445

                     58                     59                     60
                      A                      A                      A
 Frequencies --   3189.2478              3189.5615              3194.0194
 Red. masses --      1.0894                 1.0888                 1.0902
 Frc consts  --      6.5286                 6.5265                 6.5528
 IR Inten    --      0.0176                 0.0328                 0.0067

                     61                     62                     63
                      A                      A                      A
 Frequencies --   3195.4442              3197.9912              3207.3949
 Red. masses --      1.0907                 1.0940                 1.0928
 Frc consts  --      6.5618                 6.5921                 6.6237
 IR Inten    --      0.0420                 0.0548                 0.0212

                     64                     65                     66
                      A                      A                      A
 Frequencies --   3213.0933              3214.4961              3221.4681
 Red. masses --      1.0952                 1.0972                 1.0917
 Frc consts  --      6.6619                 6.6799                 6.6750
 IR Inten    --      0.0858                 0.1871                 0.4653

 - Thermochemistry -
 -------------------
 Temperature   298.150 Kelvin.  Pressure   1.00000 Atm.
 Atom     1 has atomic number  6 and mass  12.00000

 Molecular mass:   178.07825 amu.
 Principal axes and moments of inertia in atomic units:
                           1         2         3
     Eigenvalues --  1091.025153302.079334393.10445
           X            1.00000   0.00000  -0.00000
           Y           -0.00000   1.00000  -0.00000
           Z            0.00000   0.00000   1.00000
 This molecule is an asymmetric top.
 Rotational symmetry number  1.
 Warning -- assumption of classical behavior for rotation
           may cause significant error
 Rotational temperatures (Kelvin)      0.07939     0.02623     0.01972
 Rotational constants (GHZ):           1.65417     0.54655     0.41081
 Zero-point vibrational energy     508976.5 (Joules/Mol)
                                  121.64831 (Kcal/Mol)
 Warning -- explicit consideration of  15 degrees of freedom as
           vibrations may cause significant error
 Vibrational temperatures:    113.84   146.51   308.86   337.74   349.69
          (Kelvin)            553.46   587.74   597.66   630.68   691.56
                              704.95   712.04   796.25   798.10   862.53
                             1028.97  1035.94  1041.45  1120.96  1125.14
                             1158.63  1217.80  1238.75  1267.41  1313.43
                             1320.28  1410.72  1428.67  1444.33  1451.56
                             1469.15  1472.17  1526.90  1529.90  1607.65
                             1665.48  1675.40  1676.87  1729.92  1786.89
                             1803.68  1847.47  1897.97  1909.69  1929.61
                             1998.87  2088.04  2103.73  2104.60  2112.40
                             2219.28  2241.47  2244.43  2279.57  2306.68
                             2356.35  4582.34  4588.62  4589.07  4595.48
                             4597.53  4601.20  4614.73  4622.92  4624.94
                             4634.97

 Zero-point correction=                           0.193859 (Hartree/Particle)
 Thermal correction to Energy=                    0.203511
 Thermal correction to Enthalpy=                  0.204455
 Thermal correction to Gibbs Free Energy=         0.158048
 Sum of electronic and zero-point Energies=           -539.258676
 Sum of electronic and thermal Energies=              -539.249023
 Sum of electronic and thermal Enthalpies=            -539.248079
 Sum of electronic and thermal Free Energies=         -539.294487

                     E (Thermal)             CV                S
                      KCal/Mol        Cal/Mol-Kelvin    Cal/Mol-Kelvin
 Total                  127.705             40.880             97.674
 Electronic               0.000              0.000              1.377
 Translational            0.889              2.981             41.438
 Rotational               0.889              2.981             31.138
 Vibrational            125.928             34.918             23.721
 Vibration     1          0.600              1.963              3.913
 Vibration     2          0.604              1.948              3.419
 Vibration     3          0.645              1.819              2.004
 Vibration     4          0.655              1.788              1.842
 Vibration     5          0.659              1.774              1.780
 Vibration     6          0.754              1.503              1.021
 Vibration     7          0.773              1.452              0.932
 Vibration     8          0.779              1.437              0.908
 Vibration     9          0.799              1.387              0.832
 Vibration    10          0.837              1.293              0.708
 Vibration    11          0.846              1.272              0.684
 Vibration    12          0.850              1.261              0.671
 Vibration    13          0.909              1.132              0.537
 Vibration    14          0.910              1.129              0.535
 Vibration    15          0.958              1.033              0.451

 Optimization completed.
    -- Stationary point found.
 Normal termination of Gaussian 16 at Wed Apr  3 12:46:13 2024.
 Gaussian 16:  ES64L-G16RevC.01  3-Jul-2019

 ----------------------------------------------------------------------
 #p opt freq=savenormalmodes b3lyp/def2tzvp TD=(nstates=2, Root=1) geom
 =check
 ----------------------------------------------------------------------

 Error termination via Lnk1e in /apps/gaussian/g16-c01-avx2/g16/l101.exe at Wed Apr  3 12:46:15 2024.
