 Gaussian 16, Revision C.01,

 --------------------------------------------
 #p B3LYP/def2TZVP geom=connectivity opt freq
 --------------------------------------------

 Neutral phenanthrene ground state optimization and frequency calculati
 on.
 ----------------------------------------------------------------------
 Symbolic Z-matrix:
 Charge =  0 Multiplicity = 1

 SCF Done:  E(RB3LYP) =  -539.728304963     A.U. after   24 cycles
 SCF Done:  E(RB3LYP) =  -539.730657119     A.U. after   20 cycles
 SCF Done:  E(RB3LYP) =  -539.730712020     A.U. after   14 cycles
 SCF Done:  E(RB3LYP) =  -539.730716646     A.U. after    7 cycles
 Optimization completed.
    -- Stationary point found.
 Normal termination of Gaussian 16 at Tue Mar 26 13:25:23 2024.

 --------------------------------------------------------------------
 #P Geom=AllCheck Guess=TCheck SCRF=Check GenChk RB3LYP/def2TZVP Freq
 --------------------------------------------------------------------

 ----------------------------------------------------------------------
 Neutral phenanthrene ground state optimization and frequency calculati
 on.
 ----------------------------------------------------------------------
 Charge =  0 Multiplicity = 1

                         Standard orientation:
 ---------------------------------------------------------------------
 Center     Atomic      Atomic             Coordinates (Angstroms)
 Number     Number       Type             X           Y           Z
 ---------------------------------------------------------------------
      1          6           0        3.548620   -0.295569    0.000049
      2          6           0        2.827942    0.875212    0.000145
      3          6           0        1.417972    0.862809    0.000081
      4          6           0        0.726726   -0.378787   -0.000019
      5          6           0        1.495226   -1.561057   -0.000173
      6          6           0        2.871971   -1.524008   -0.000141
      7          6           0        0.676773    2.086934    0.000058
      8          6           0       -0.726728   -0.378785    0.000005
      9          6           0       -1.417971    0.862809   -0.000087
     10          6           0       -0.676773    2.086934   -0.000077
     11          6           0       -2.827944    0.875212   -0.000123
     12          1           0       -3.338018    1.831368   -0.000218
     13          6           0       -3.548619   -0.295568   -0.000023
     14          6           0       -2.871969   -1.524010    0.000144
     15          6           0       -1.495227   -1.561058    0.000158
     16          1           0        1.227006    3.020432    0.000129
     17          1           0        4.630951   -0.272046    0.000102
     18          1           0        3.338018    1.831368    0.000252
     19          1           0        1.003654   -2.523547   -0.000377
     20          1           0        3.434089   -2.449414   -0.000288
     21          1           0       -1.227005    3.020433   -0.000161
     22          1           0       -4.630951   -0.272050   -0.000045
     23          1           0       -3.434094   -2.449412    0.000282
     24          1           0       -1.003645   -2.523544    0.000342
 ---------------------------------------------------------------------

 SCF Done:  E(RB3LYP) =  -539.730716646     A.U. after    1 cycles

 The electronic state is 1-A.
 Alpha  occ. eigenvalues --  -10.19096 -10.19062 -10.18775 -10.18772 -10.17886
 Alpha  occ. eigenvalues --  -10.17869 -10.17866 -10.17847 -10.17846 -10.17810
 Alpha  occ. eigenvalues --  -10.17802 -10.17802 -10.17747 -10.17747  -0.88853
 Alpha  occ. eigenvalues --   -0.85500  -0.81449  -0.78138  -0.76122  -0.72952
 Alpha  occ. eigenvalues --   -0.72344  -0.63753  -0.63053  -0.61613  -0.58831
 Alpha  occ. eigenvalues --   -0.53789  -0.53564  -0.50222  -0.48422  -0.48132
 Alpha  occ. eigenvalues --   -0.44314  -0.43700  -0.43212  -0.42856  -0.41590
 Alpha  occ. eigenvalues --   -0.40946  -0.39795  -0.36947  -0.36816  -0.36595
 Alpha  occ. eigenvalues --   -0.33973  -0.32998  -0.32376  -0.29325  -0.27120
 Alpha  occ. eigenvalues --   -0.23332  -0.22260
 Alpha virt. eigenvalues --   -0.04951  -0.04541  -0.00980   0.01886   0.04650
 Alpha virt. eigenvalues --    0.05347   0.05403   0.06471   0.07923   0.08143
 Alpha virt. eigenvalues --    0.09728   0.09900   0.11710   0.11963   0.12039

 Mulliken charges:
               1
     1  C   -0.111025
     2  C   -0.154654
     3  C    0.139304
     4  C    0.093304
     5  C   -0.192703
     6  C   -0.100840
     7  C   -0.183438
     8  C    0.093301
     9  C    0.139305
    10  C   -0.183438
    11  C   -0.154655
    12  H    0.100922
    13  C   -0.111024
    14  C   -0.100840
    15  C   -0.192703
    16  H    0.097085
    17  H    0.107843
    18  H    0.100922
    19  H    0.096446
    20  H    0.107756
    21  H    0.097085
    22  H    0.107843
    23  H    0.107757
    24  H    0.096446
 Sum of Mulliken charges =  -0.00000

 Dipole moment (field-independent basis, Debye):
    X=              0.0000    Y=             -0.0222    Z=              0.0000  Tot=              0.0222
 Quadrupole moment (field-independent basis, Debye-Ang):
   XX=            -71.7254   YY=            -71.9200   ZZ=            -88.0171
   XY=              0.0000   XZ=              0.0001   YZ=              0.0000

  Exact polarizability:     251.493      -0.000     171.293       0.002       0.000      77.741
 Approx polarizability:     413.768      -0.000     313.120       0.005       0.000     131.395

                      1                      2                      3
                      A                      A                      A
 Frequencies --     94.8271               100.6575               229.3690
 Red. masses --      3.6323                 4.3449                 3.6561
 Frc consts  --      0.0192                 0.0259                 0.1133
 IR Inten    --      0.0000                 0.8868                 3.9930

                      4                      5                      6
                      A                      A                      A
 Frequencies --    242.8503               247.8334               402.1364
 Red. masses --      4.2220                 4.5814                 3.1867
 Frc consts  --      0.1467                 0.1658                 0.3036
 IR Inten    --      0.0000                 0.4140                 0.0000

                      7                      8                      9
                      A                      A                      A
 Frequencies --    412.4406               438.8018               447.4410
 Red. masses --      6.5074                 3.0988                 4.7299
 Frc consts  --      0.6522                 0.3515                 0.5579
 IR Inten    --      0.5049                 8.0614                 1.8348

                     10                     11                     12
                      A                      A                      A
 Frequencies --    507.0891               509.5027               547.0033
 Red. masses --      5.4363                 3.2921                 2.7263
 Frc consts  --      0.8236                 0.5035                 0.4806
 IR Inten    --      0.9489                 5.1701                 0.0000

                     13                     14                     15
                      A                      A                      A
 Frequencies --    558.4585               598.8576               633.5613
 Red. masses --      7.1675                 3.5693                 6.8960
 Frc consts  --      1.3170                 0.7542                 1.6309
 IR Inten    --      0.2772                 0.0000                 5.2502

                     16                     17                     18
                      A                      A                      A
 Frequencies --    725.5339               726.8695               729.1660
 Red. masses --      5.4664                 2.7576                 5.7890
 Frc consts  --      1.6954                 0.8584                 1.8135
 IR Inten    --      0.0700                 1.3424                 2.1137

                     19                     20                     21
                      A                      A                      A
 Frequencies --    748.4624               765.8888               812.0411
 Red. masses --      1.2644                 1.4803                 1.8344
 Frc consts  --      0.4173                 0.5116                 0.7127
 IR Inten    --     86.5498                 0.0000                 0.0000

                     22                     23                     24
                      A                      A                      A
 Frequencies --    829.9500               845.9454               883.7473
 Red. masses --      1.4235                 5.7432                 1.5509
 Frc consts  --      0.5777                 2.4215                 0.7137
 IR Inten    --     52.6344                 0.0757                11.3322

                     25                     26                     27
                      A                      A                      A
 Frequencies --    886.6474               891.0668               930.1612
 Red. masses --      2.7290                 3.9642                 1.3418
 Frc consts  --      1.2640                 1.8545                 0.6840
 IR Inten    --      0.0000                 1.9968                 0.0000

                     28                     29                     30
                      A                      A                      A
 Frequencies --    950.1247               957.0255               963.9256
 Red. masses --      1.3554                 1.2689                 1.2335
 Frc consts  --      0.7209                 0.6848                 0.6752
 IR Inten    --      2.4034                 0.0000                 0.0823

                     31                     32                     33
                      A                      A                      A
 Frequencies --    968.8053              1021.4098              1062.9462
 Red. masses --      1.2926                 7.3755                 1.9974
 Frc consts  --      0.7148                 4.5336                 1.3296
 IR Inten    --      0.0000                 2.2623                 6.0139

                     34                     35                     36
                      A                      A                      A
 Frequencies --   1063.3101              1118.2348              1167.9477
 Red. masses --      2.5010                 2.3114                 1.3571
 Frc consts  --      1.6660                 1.7029                 1.0907
 IR Inten    --      1.3339                 1.7923                 1.7889

                     37                     38                     39
                      A                      A                      A
 Frequencies --   1175.3137              1188.1587              1191.3923
 Red. masses --      1.2551                 1.3557                 1.0828
 Frc consts  --      1.0215                 1.1276                 0.9056
 IR Inten    --      0.0286                 0.1791                 0.4949

                     40                     41                     42
                      A                      A                      A
 Frequencies --   1226.1515              1245.1563              1268.4071
 Red. masses --      2.2243                 1.8629                 1.5394
 Frc consts  --      1.9703                 1.7018                 1.4592
 IR Inten    --      1.7471                 0.4462                 9.5348

                     43                     44                     45
                      A                      A                      A
 Frequencies --   1309.5932              1327.8119              1368.1639
 Red. masses --      1.7636                 2.9015                 6.9436
 Frc consts  --      1.7820                 3.0141                 7.6579
 IR Inten    --      0.0005                 2.4449                 0.0963

                     46                     47                     48
                      A                      A                      A
 Frequencies --   1375.6444              1451.1291              1453.2615
 Red. masses --      4.3051                 1.8332                 2.8272
 Frc consts  --      4.8001                 2.2745                 3.5180
 IR Inten    --      0.8454                 0.5118                 1.0263

                     49                     50                     51
                      A                      A                      A
 Frequencies --   1475.7105              1495.9823              1538.3742
 Red. masses --      2.2597                 2.1307                 2.9977
 Frc consts  --      2.8994                 2.8094                 4.1799
 IR Inten    --      3.7864                11.0827                 6.2595

                     52                     53                     54
                      A                      A                      A
 Frequencies --   1564.8781              1608.9184              1644.9940
 Red. masses --      3.2371                 6.9246                 5.1239
 Frc consts  --      4.6705                10.5612                 8.1693
 IR Inten    --      1.9691                 0.0515                 2.6018

                     55                     56                     57
                      A                      A                      A
 Frequencies --   1655.8201              1660.6743              3160.2274
 Red. masses --      5.8001                 6.2421                 1.0859
 Frc consts  --      9.3694                10.1427                 6.3895
 IR Inten    --      0.1790                 0.3321                 0.1578

                     58                     59                     60
                      A                      A                      A
 Frequencies --   3163.5928              3164.2819              3173.2476
 Red. masses --      1.0864                 1.0858                 1.0882
 Frc consts  --      6.4061                 6.4055                 6.4559
 IR Inten    --      3.0813                 1.9320                 0.0550

                     61                     62                     63
                      A                      A                      A
 Frequencies --   3174.5130              3179.7325              3187.3373
 Red. masses --      1.0894                 1.0952                 1.0930
 Frc consts  --      6.4682                 6.5241                 6.5422
 IR Inten    --     12.6293                30.9047                36.2960

                     64                     65                     66
                      A                      A                      A
 Frequencies --   3190.2301              3197.2253              3210.4019
 Red. masses --      1.0947                 1.0959                 1.0903
 Frc consts  --      6.5643                 6.6005                 6.6207
 IR Inten    --      0.4754                12.8251                18.3821

 - Thermochemistry -
 -------------------
 Temperature   298.150 Kelvin.  Pressure   1.00000 Atm.
 Atom     1 has atomic number  6 and mass  12.00000

 Molecular mass:   178.07825 amu.
 Principal axes and moments of inertia in atomic units:
                           1         2         3
     Eigenvalues --  1109.779643257.589054367.36867
           X            1.00000  -0.00000  -0.00000
           Y            0.00000   1.00000   0.00000
           Z            0.00000  -0.00000   1.00000
 This molecule is an asymmetric top.
 Rotational symmetry number  1.
 Warning -- assumption of classical behavior for rotation
           may cause significant error
 Rotational temperatures (Kelvin)      0.07805     0.02659     0.01983
 Rotational constants (GHZ):           1.62622     0.55401     0.41323
 Zero-point vibrational energy     508690.2 (Joules/Mol)
                                  121.57988 (Kcal/Mol)
 Warning -- explicit consideration of  14 degrees of freedom as
           vibrations may cause significant error
 Vibrational temperatures:    136.44   144.82   330.01   349.41   356.58
          (Kelvin)            578.58   593.41   631.34   643.77   729.59
                              733.06   787.02   803.50   861.62   911.55
                             1043.88  1045.80  1049.11  1076.87  1101.94
                             1168.35  1194.11  1217.13  1271.52  1275.69
                             1282.05  1338.29  1367.02  1376.95  1386.87
                             1393.89  1469.58  1529.34  1529.87  1608.89
                             1680.42  1691.01  1709.50  1714.15  1764.16
                             1791.50  1824.95  1884.21  1910.43  1968.48
                             1979.25  2087.85  2090.92  2123.22  2152.38
                             2213.38  2251.51  2314.87  2366.78  2382.36
                             2389.34  4546.86  4551.70  4552.70  4565.60
                             4567.42  4574.93  4585.87  4590.03  4600.09
                             4619.05

 Zero-point correction=                           0.193750 (Hartree/Particle)
 Thermal correction to Energy=                    0.203221
 Thermal correction to Enthalpy=                  0.204165
 Thermal correction to Gibbs Free Energy=         0.158872
 Sum of electronic and zero-point Energies=           -539.536967
 Sum of electronic and thermal Energies=              -539.527496
 Sum of electronic and thermal Enthalpies=            -539.526551
 Sum of electronic and thermal Free Energies=         -539.571844

                     E (Thermal)             CV                S
                      KCal/Mol        Cal/Mol-Kelvin    Cal/Mol-Kelvin
 Total                  127.523             40.687             95.327
 Electronic               0.000              0.000              0.000
 Translational            0.889              2.981             41.438
 Rotational               0.889              2.981             31.135
 Vibrational            125.746             34.726             22.754
 Vibration     1          0.603              1.953              3.558
 Vibration     2          0.604              1.949              3.442
 Vibration     3          0.652              1.796              1.884
 Vibration     4          0.659              1.775              1.782
 Vibration     5          0.661              1.766              1.746
 Vibration     6          0.768              1.466              0.955
 Vibration     7          0.776              1.443              0.918
 Vibration     8          0.799              1.386              0.830
 Vibration     9          0.807              1.367              0.804
 Vibration    10          0.862              1.234              0.641
 Vibration    11          0.865              1.229              0.635
 Vibration    12          0.902              1.146              0.550
 Vibration    13          0.914              1.121              0.527
 Vibration    14          0.957              1.034              0.452

 Optimization completed.
    -- Stationary point found.
 Normal termination of Gaussian 16 at Tue Mar 26 13:35:41 2024.
 Gaussian 16:  ES64L-G16RevC.01  3-Jul-2019

 ----------------------------------------------------------------------
 #p B3LYP/def2TZVP geom=check opt freq=savenormalmodes TD=(nstates=2, R
 oot=1)
 ----------------------------------------------------------------------

 Error termination via Lnk1e in /apps/gaussian/g16-c01-avx2/g16/l101.exe at Tue Mar 26 13:35:42 2024.
