 Gaussian 16, Revision C.01,

 --------------------------------------------
 #p opt freq b3lyp/def2tzvp geom=connectivity
 --------------------------------------------

 Ground state optimization and frequency calculation for neutral phenan
 threne.
 ----------------------------------------------------------------------
 Symbolic Z-matrix:
 Charge =  0 Multiplicity = 1

 SCF Done:  E(RB3LYP) =  -539.728304963     A.U. after   23 cycles
 SCF Done:  E(RB3LYP) =  -539.730657119     A.U. after   19 cycles
 SCF Done:  E(RB3LYP) =  -539.730712021     A.U. after   17 cycles
 SCF Done:  E(RB3LYP) =  -539.730716646     A.U. after    7 cycles
 Optimization completed.
    -- Stationary point found.
 Normal termination of Gaussian 16 at Tue May  7 11:40:23 2024.

 --------------------------------------------------------------------
 #P Geom=AllCheck Guess=TCheck SCRF=Check GenChk RB3LYP/def2TZVP Freq
 --------------------------------------------------------------------

 ----------------------------------------------------------------------
 Ground state optimization and frequency calculation for neutral phenan
 threne.
 ----------------------------------------------------------------------
 Charge =  0 Multiplicity = 1

 SCF Done:  E(RB3LYP) =  -539.730716646     A.U. after    1 cycles
 Optimization completed.
 Normal termination of Gaussian 16 at Tue May  7 11:54:12 2024.

 ----------------------------------------------------------------------
 #p opt freq=savenormalmodes b3lyp/def2tzvp TD=(nstates=5, Root=1) geom
 =check
 ----------------------------------------------------------------------

 ---------------------------------------------------------------------
 Neutral phenanthrene TD-DFT excitation/optimization freq calculation.
 ---------------------------------------------------------------------
 Structure from the checkpoint file:  "Phenanthrene_n_1-2.chk"
 Charge =  0 Multiplicity = 1

 SCF Done:  E(RB3LYP) =  -539.730716646     A.U. after   18 cycles
 Total Energy, E(TD-HF/TD-DFT) =  -539.584857835
 SCF Done:  E(RB3LYP) =  -539.727739487     A.U. after   13 cycles
 Total Energy, E(TD-HF/TD-DFT) =  -539.589360392
 SCF Done:  E(RB3LYP) =  -539.725975310     A.U. after    9 cycles
 Total Energy, E(TD-HF/TD-DFT) =  -539.589769692
 SCF Done:  E(RB3LYP) =  -539.725889323     A.U. after    8 cycles
 Total Energy, E(TD-HF/TD-DFT) =  -539.589786359
 SCF Done:  E(RB3LYP) =  -539.725919887     A.U. after    7 cycles
 Total Energy, E(TD-HF/TD-DFT) =  -539.589787515
    -- Stationary point found.
 Normal termination of Gaussian 16 at Tue May  7 13:05:17 2024.

 ----------------------------------------------------------------------
 #P Geom=AllCheck Guess=TCheck SCRF=Check GenChk RB3LYP TD(FC,Read)/def
 2TZVP Freq
 ----------------------------------------------------------------------

 Structure from the checkpoint file:  "Phenanthrene_n_1-2.chk"
 ---------------------------------------------------------------------
 Neutral phenanthrene TD-DFT excitation/optimization freq calculation.
 ---------------------------------------------------------------------
 Charge =  0 Multiplicity = 1

 SCF Done:  E(RB3LYP) =  -539.725919887     A.U. after    1 cycles

 Excitation energies and oscillator strengths:

 Excited State   1:      Singlet-A      3.7044 eV  334.70 nm  f=0.0029  <S**2>=0.000
      46 -> 48         0.41552
      47 -> 49         0.56878
 This state for optimization and/or second-order correction.
 Total Energy, E(TD-HF/TD-DFT) =  -539.589787519
 Copying the excited state density for this state as the 1-particle RhoCI density.

 Excited State   2:      Singlet-A      3.9712 eV  312.21 nm  f=0.0561  <S**2>=0.000
      46 -> 49        -0.35332
      47 -> 48         0.60423

 Excited State   3:      Singlet-A      4.4729 eV  277.19 nm  f=0.1129  <S**2>=0.000
      46 -> 48         0.54711
      47 -> 49        -0.40427
      47 -> 50        -0.14269

 Excited State   4:      Singlet-A      4.7379 eV  261.68 nm  f=0.7162  <S**2>=0.000
      46 -> 49         0.59005
      46 -> 50         0.18207
      47 -> 48         0.32706

 Excited State   5:      Singlet-A      4.9876 eV  248.58 nm  f=0.0124  <S**2>=0.000
      45 -> 48         0.42573
      47 -> 50         0.55243

 The electronic state is 1-A.
 Alpha  occ. eigenvalues --  -10.19414 -10.19371 -10.18985 -10.18982 -10.18181
 Alpha  occ. eigenvalues --  -10.18178 -10.18161 -10.18160 -10.18145 -10.18103
 Alpha  occ. eigenvalues --  -10.18103 -10.18088 -10.18019 -10.18019  -0.88525
 Alpha  occ. eigenvalues --   -0.85056  -0.81151  -0.78191  -0.76295  -0.72621
 Alpha  occ. eigenvalues --   -0.71866  -0.64042  -0.63258  -0.61266  -0.58612
 Alpha  occ. eigenvalues --   -0.53927  -0.53330  -0.50281  -0.48411  -0.48244
 Alpha  occ. eigenvalues --   -0.44272  -0.43594  -0.43177  -0.42894  -0.41264
 Alpha  occ. eigenvalues --   -0.40734  -0.39783  -0.37364  -0.36579  -0.36532
 Alpha  occ. eigenvalues --   -0.34264  -0.32819  -0.32219  -0.29413  -0.27308
 Alpha  occ. eigenvalues --   -0.23016  -0.21811
 Alpha virt. eigenvalues --   -0.05519  -0.05168  -0.00855   0.01890   0.04698
 Alpha virt. eigenvalues --    0.05322   0.05432   0.06186   0.07891   0.08125
 Alpha virt. eigenvalues --    0.09653   0.09832   0.11507   0.11666   0.12000

 Mulliken charges:
               1
     1  C   -0.113015
     2  C   -0.154468
     3  C    0.130532
     4  C    0.093632
     5  C   -0.189499
     6  C   -0.101936
     7  C   -0.182412
     8  C    0.093632
     9  C    0.130532
    10  C   -0.182412
    11  C   -0.154468
    12  H    0.102350
    13  C   -0.113015
    14  C   -0.101936
    15  C   -0.189499
    16  H    0.098187
    17  H    0.110212
    18  H    0.102350
    19  H    0.098439
    20  H    0.107977
    21  H    0.098187
    22  H    0.110212
    23  H    0.107977
    24  H    0.098439
 Sum of Mulliken charges =  -0.00000

 Dipole moment (field-independent basis, Debye):
    X=             -0.0000    Y=             -0.0407    Z=             -0.0000  Tot=              0.0407
 Quadrupole moment (field-independent basis, Debye-Ang):
   XX=            -71.4296   YY=            -71.9759   ZZ=            -88.3230
   XY=             -0.0000   XZ=              0.0001   YZ=              0.0000

  Exact polarizability:     413.512       0.000     199.010       0.000      -0.000      79.346
 Approx polarizability:     448.263      -0.000     323.585       0.001       0.000     132.339

 Optimization completed.
    -- Stationary point found.
 Normal termination of Gaussian 16 at Tue May  7 13:45:36 2024.

 ------------------------------------------------------------------
 #p B3LYP/def2TZVP Freq(ReadFC, FC, ReadFCHT) geom=check guess=read
 ------------------------------------------------------------------

 Franck-Condon Analysis of neutral phenanthrene for the absorption spec
 tra.
 ----------------------------------------------------------------------
 Structure from the checkpoint file:  "Phenanthrene_n_1-1.chk"
 Charge =  0 Multiplicity = 1

 Normal termination of Gaussian 16 at Tue May  7 13:46:04 2024.

 ----------------------------------------------------------------------
 #p B3LYP/def2TZVP Freq(ReadFC, FC, ReadFCHT, emission) geom=check gues
 s=read
 ----------------------------------------------------------------------

 Franck-Condon Analysis of neutral phenanthrene for the emission spectr
 a.
 ----------------------------------------------------------------------
 Structure from the checkpoint file:  "Phenanthrene_n_1-1.chk"
 Charge =  0 Multiplicity = 1

 Normal termination of Gaussian 16 at Tue May  7 13:46:29 2024.
 Gaussian 16:  ES64L-G16RevC.01  3-Jul-2019

                         Standard orientation:
 ---------------------------------------------------------------------
 Center     Atomic      Atomic             Coordinates (Angstroms)
 Number     Number       Type             X           Y           Z
 ---------------------------------------------------------------------
      1          6           0        3.548620   -0.295569    0.000049
      2          6           0        2.827942    0.875212    0.000145
      3          6           0        1.417972    0.862810    0.000081
      4          6           0        0.726727   -0.378787   -0.000019
      5          6           0        1.495226   -1.561057   -0.000173
      6          6           0        2.871971   -1.524008   -0.000141
      7          6           0        0.676773    2.086934    0.000058
      8          6           0       -0.726728   -0.378785    0.000005
      9          6           0       -1.417971    0.862809   -0.000087
     10          6           0       -0.676773    2.086934   -0.000077
     11          6           0       -2.827944    0.875212   -0.000123
     12          1           0       -3.338018    1.831368   -0.000218
     13          6           0       -3.548619   -0.295568   -0.000023
     14          6           0       -2.871969   -1.524010    0.000144
     15          6           0       -1.495228   -1.561058    0.000158
     16          1           0        1.227006    3.020432    0.000129
     17          1           0        4.630951   -0.272046    0.000102
     18          1           0        3.338018    1.831368    0.000252
     19          1           0        1.003654   -2.523547   -0.000377
     20          1           0        3.434089   -2.449414   -0.000288
     21          1           0       -1.227005    3.020433   -0.000161
     22          1           0       -4.630951   -0.272050   -0.000045
     23          1           0       -3.434094   -2.449412    0.000282
     24          1           0       -1.003645   -2.523544    0.000342
 ---------------------------------------------------------------------

                      1                      2                      3
                      A                      A                      A
 Frequencies --     94.8273               100.6575               210.4388
 Red. masses --      3.6323                 4.3449                 5.2231
 Frc consts  --      0.0192                 0.0259                 0.1363
 IR Inten    --      0.0000                 0.8868                 0.0946

                      4                      5                      6
                      A                      A                      A
 Frequencies --    229.3690               242.8504               294.6715
 Red. masses --      3.6561                 4.2220                 4.6639
 Frc consts  --      0.1133                 0.1467                 0.2386
 IR Inten    --      3.9930                 0.0000                 0.5729

                      7                      8                      9
                      A                      A                      A
 Frequencies --    402.1364               438.8019               447.4408
 Red. masses --      3.1867                 3.0988                 4.7298
 Frc consts  --      0.3036                 0.3515                 0.5579
 IR Inten    --      0.0000                 8.0614                 1.8348

                     10                     11                     12
                      A                      A                      A
 Frequencies --    507.0889               509.5027               527.9906
 Red. masses --      5.4363                 3.2921                 7.3051
 Frc consts  --      0.8236                 0.5035                 1.1999
 IR Inten    --      0.9489                 5.1701                 0.5064

                     13                     14                     15
                      A                      A                      A
 Frequencies --    547.0034               598.8577               633.5613
 Red. masses --      2.7263                 3.5693                 6.8960
 Frc consts  --      0.4806                 0.7542                 1.6309
 IR Inten    --      0.0000                 0.0000                 5.2502

                     16                     17                     18
                      A                      A                      A
 Frequencies --    676.8488               726.8695               729.1659
 Red. masses --      6.2494                 2.7575                 5.7891
 Frc consts  --      1.6868                 0.8584                 1.8135
 IR Inten    --      0.0332                 1.3424                 2.1137

                     19                     20                     21
                      A                      A                      A
 Frequencies --    748.4623               765.8888               812.0410
 Red. masses --      1.2644                 1.4803                 1.8344
 Frc consts  --      0.4173                 0.5116                 0.7127
 IR Inten    --     86.5498                 0.0000                 0.0000

                     22                     23                     24
                      A                      A                      A
 Frequencies --    829.9500               840.3253               883.7474
 Red. masses --      1.4235                 5.7200                 1.5509
 Frc consts  --      0.5777                 2.3798                 0.7137
 IR Inten    --     52.6346                 0.1226                11.3320

                     25                     26                     27
                      A                      A                      A
 Frequencies --    886.6476               891.0667               930.1613
 Red. masses --      2.7290                 3.9642                 1.3418
 Frc consts  --      1.2640                 1.8545                 0.6840
 IR Inten    --      0.0000                 1.9968                 0.0000

                     28                     29                     30
                      A                      A                      A
 Frequencies --    950.1247               957.0253               963.9256
 Red. masses --      1.3554                 1.2689                 1.2335
 Frc consts  --      0.7209                 0.6848                 0.6752
 IR Inten    --      2.4034                 0.0000                 0.0823

                     31                     32                     33
                      A                      A                      A
 Frequencies --    968.8052              1021.4097              1043.1794
 Red. masses --      1.2926                 7.3755                 2.3725
 Frc consts  --      0.7148                 4.5336                 1.5212
 IR Inten    --      0.0000                 2.2623                 1.2296

                     34                     35                     36
                      A                      A                      A
 Frequencies --   1062.9463              1117.9576              1167.9476
 Red. masses --      1.9974                 2.3235                 1.3571
 Frc consts  --      1.3296                 1.7110                 1.0907
 IR Inten    --      6.0140                 1.9054                 1.7889

                     37                     38                     39
                      A                      A                      A
 Frequencies --   1175.3061              1187.7962              1191.3923
 Red. masses --      1.2548                 1.3522                 1.0828
 Frc consts  --      1.0213                 1.1240                 0.9056
 IR Inten    --      0.0299                 0.1908                 0.4949

                     40                     41                     42
                      A                      A                      A
 Frequencies --   1225.9381              1245.1563              1268.0792
 Red. masses --      2.2288                 1.8629                 1.5409
 Frc consts  --      1.9736                 1.7017                 1.4599
 IR Inten    --      1.7180                 0.4462                 9.5312

                     43                     44                     45
                      A                      A                      A
 Frequencies --   1309.5932              1327.4541              1368.1637
 Red. masses --      1.7635                 2.8823                 6.9437
 Frc consts  --      1.7820                 2.9924                 7.6580
 IR Inten    --      0.0005                 2.3195                 0.0963

                     46                     47                     48
                      A                      A                      A
 Frequencies --   1374.6027              1451.1290              1452.4852
 Red. masses --      4.3473                 1.8332                 2.8219
 Frc consts  --      4.8398                 2.2745                 3.5077
 IR Inten    --      0.9652                 0.5118                 1.1287

                     49                     50                     51
                      A                      A                      A
 Frequencies --   1475.3619              1495.9823              1538.3741
 Red. masses --      2.2557                 2.1307                 2.9977
 Frc consts  --      2.8929                 2.8094                 4.1799
 IR Inten    --      3.7073                11.0827                 6.2595

                     52                     53                     54
                      A                      A                      A
 Frequencies --   1564.8184              1608.9183              1644.5744
 Red. masses --      3.2505                 6.9246                 5.1451
 Frc consts  --      4.6895                10.5612                 8.1988
 IR Inten    --      1.9487                 0.0515                 2.6888

                     55                     56                     57
                      A                      A                      A
 Frequencies --   1655.8200              1659.7405              3160.2276
 Red. masses --      5.8001                 6.2418                 1.0859
 Frc consts  --      9.3694                10.1307                 6.3895
 IR Inten    --      0.1790                 0.2660                 0.1579

                     58                     59                     60
                      A                      A                      A
 Frequencies --   3163.2108              3164.2823              3173.2477
 Red. masses --      1.0881                 1.0858                 1.0882
 Frc consts  --      6.4146                 6.4055                 6.4559
 IR Inten    --      3.8445                 1.9321                 0.0549

                     61                     62                     63
                      A                      A                      A
 Frequencies --   3174.5127              3177.5661              3187.2826
 Red. masses --      1.0894                 1.1079                 1.1105
 Frc consts  --      6.4685                 6.5911                 6.6468
 IR Inten    --     12.3631                25.5320                 1.7433

                     64                     65                     66
                      A                      A                      A
 Frequencies --   3187.3373              3197.2247              3207.9535
 Red. masses --      1.0930                 1.0959                 1.0943
 Frc consts  --      6.5422                 6.6005                 6.6353
 IR Inten    --     36.2923                12.8286                21.9946

 - Thermochemistry -
 -------------------
 Temperature   298.150 Kelvin.  Pressure   1.00000 Atm.
 Atom     1 has atomic number  6 and mass  12.00000

 Molecular mass:   178.07825 amu.
 Principal axes and moments of inertia in atomic units:
                           1         2         3
     Eigenvalues --  1109.779713257.589374367.36906
           X            1.00000  -0.00000  -0.00000
           Y            0.00000   1.00000   0.00000
           Z            0.00000  -0.00000   1.00000
 This molecule is an asymmetric top.
 Rotational symmetry number  1.
 Warning -- assumption of classical behavior for rotation
           may cause significant error
 Rotational temperatures (Kelvin)      0.07805     0.02659     0.01983
 Rotational constants (GHZ):           1.62622     0.55401     0.41323
 Zero-point vibrational energy     507056.5 (Joules/Mol)
                                  121.18941 (Kcal/Mol)
 Warning -- explicit consideration of  14 degrees of freedom as
           vibrations may cause significant error
 Vibrational temperatures:    136.44   144.82   302.77   330.01   349.41
          (Kelvin)            423.97   578.58   631.34   643.77   729.59
                              733.06   759.66   787.02   861.62   911.55
                              973.83  1045.80  1049.11  1076.87  1101.94
                             1168.35  1194.11  1209.04  1271.52  1275.69
                             1282.05  1338.29  1367.02  1376.95  1386.87
                             1393.89  1469.58  1500.90  1529.34  1608.49
                             1680.42  1691.00  1708.97  1714.15  1763.85
                             1791.50  1824.48  1884.21  1909.91  1968.48
                             1977.75  2087.85  2089.80  2122.72  2152.38
                             2213.38  2251.42  2314.87  2366.18  2382.36
                             2388.00  4546.86  4551.15  4552.70  4565.60
                             4567.42  4571.81  4585.79  4585.87  4600.09
                             4615.53

 Zero-point correction=                           0.193128 (Hartree/Particle)
 Thermal correction to Energy=                    0.202827
 Thermal correction to Enthalpy=                  0.203771
 Thermal correction to Gibbs Free Energy=         0.158024
 Sum of electronic and zero-point Energies=           -539.537589
 Sum of electronic and thermal Energies=              -539.527890
 Sum of electronic and thermal Enthalpies=            -539.526946
 Sum of electronic and thermal Free Energies=         -539.572693

                     E (Thermal)             CV                S
                      KCal/Mol        Cal/Mol-Kelvin    Cal/Mol-Kelvin
 Total                  127.276             41.176             96.283
 Electronic               0.000              0.000              0.000
 Translational            0.889              2.981             41.438
 Rotational               0.889              2.981             31.135
 Vibrational            125.498             35.214             23.710
 Vibration     1          0.603              1.953              3.558
 Vibration     2          0.604              1.949              3.442
 Vibration     3          0.643              1.825              2.040
 Vibration     4          0.652              1.796              1.884
 Vibration     5          0.659              1.775              1.782
 Vibration     6          0.689              1.684              1.447
 Vibration     7          0.768              1.466              0.955
 Vibration     8          0.799              1.386              0.830
 Vibration     9          0.807              1.367              0.804
 Vibration    10          0.862              1.234              0.641
 Vibration    11          0.865              1.229              0.635
 Vibration    12          0.883              1.188              0.592
 Vibration    13          0.902              1.146              0.550
 Vibration    14          0.957              1.034              0.452

 Error termination via Lnk1e in /apps/gaussian/g16-c01-avx2/g16/l718.exe at Tue May  7 13:46:37 2024.
