 Gaussian 16, Revision C.01,

 ---------------------------------------
 #p hf/sto-3g geom=connectivity Opt Freq
 ---------------------------------------

 --------------------------------------------------------------------
 Ground state optimization and frequency calculation for formaldehyde
 --------------------------------------------------------------------
 Symbolic Z-matrix:
 Charge =  0 Multiplicity = 1

 SCF Done:  E(RHF) =  -112.349068079     A.U. after    9 cycles
 SCF Done:  E(RHF) =  -112.354169635     A.U. after    9 cycles
 SCF Done:  E(RHF) =  -112.354340256     A.U. after    8 cycles
 SCF Done:  E(RHF) =  -112.354346976     A.U. after    8 cycles
 Optimization completed.
    -- Stationary point found.
 Normal termination of Gaussian 16 at Thu Feb 22 18:09:09 2024.

 ---------------------------------------------------------------
 #P Geom=AllCheck Guess=TCheck SCRF=Check GenChk RHF/STO-3G Freq
 ---------------------------------------------------------------

 Structure from the checkpoint file:  "STO-3G_job1.chk"
 --------------------------------------------------------------------
 Ground state optimization and frequency calculation for formaldehyde
 --------------------------------------------------------------------
 Charge =  0 Multiplicity = 1

 SCF Done:  E(RHF) =  -112.354346976     A.U. after    1 cycles
 Optimization completed.
 Normal termination of Gaussian 16 at Thu Feb 22 18:09:15 2024.

 ----------------------------------------------------------------
 #p CIS/STO-3G CIS=(nstates=2, Root=1) geom=check Density=Current
 ----------------------------------------------------------------

 HF/STO-3G for formaldehyde, calculating the first two excited states a
 nd looking at the first one.
 ----------------------------------------------------------------------
 Structure from the checkpoint file:  "STO-3G_job2.chk"
 Charge =  0 Multiplicity = 1

 SCF Done:  E(RHF) =  -112.354346976     A.U. after    9 cycles
 Total Energy, E(TD-HF/TD-DFT) =  -112.203359298
 Normal termination of Gaussian 16 at Thu Feb 22 18:09:20 2024.

 --------------------------------------------
 #p CIS/STO-3G geom=check Density=Current Opt
 --------------------------------------------

 HF/STO-3G for formaldehyde, optimizing its first excited state geometr
 y.
 ----------------------------------------------------------------------
 Structure from the checkpoint file:  "STO-3G_job3.chk"
 Charge =  0 Multiplicity = 1

 SCF Done:  E(RHF) =  -112.354346976     A.U. after    9 cycles
 SCF Done:  E(RHF) =  -112.340131383     A.U. after   10 cycles
 SCF Done:  E(RHF) =  -112.339971049     A.U. after    8 cycles
 SCF Done:  E(RHF) =  -112.339703855     A.U. after    8 cycles
    -- Stationary point found.
 Normal termination of Gaussian 16 at Thu Feb 22 18:09:35 2024.
 Gaussian 16:  ES64L-G16RevC.01  3-Jul-2019

 ---------------------------------------------
 #p CIS/STO-3G geom=check Density=Current Freq
 ---------------------------------------------

 HF/STO-3G for formaldehyde, performing a frequency calculation on the
 first excited state.
 ----------------------------------------------------------------------
 Structure from the checkpoint file:  "STO-3G_job4.chk"
 Charge =  0 Multiplicity = 1

                         Standard orientation:
 ---------------------------------------------------------------------
 Center     Atomic      Atomic             Coordinates (Angstroms)
 Number     Number       Type             X           Y           Z
 ---------------------------------------------------------------------
      1          6           0        0.000000    0.000000   -0.586894
      2          1           0       -0.000000   -0.942788   -1.110296
      3          1           0        0.000000    0.942788   -1.110296
      4          8           0       -0.000000   -0.000000    0.717745
 ---------------------------------------------------------------------

 SCF Done:  E(RHF) =  -112.339703855     A.U. after   10 cycles

 Excitation energies and oscillator strengths:

 Excited State   1:      Singlet-A2     3.4171 eV  362.83 nm  f=0.0000  <S**2>=0.000
       5 ->  9         0.11521
       8 ->  9         0.69766
 This state for optimization and/or second-order correction.
 Total Energy, E(CIS/TDA) =  -112.214126372
 Copying the excited state density for this state as the 1-particle RhoCI density.

 Excited State   2:      Singlet-B1     7.9423 eV  156.11 nm  f=0.0087  <S**2>=0.000
       6 ->  9         0.70395

 Excited State   3:      Singlet-A1    10.4208 eV  118.98 nm  f=0.2865  <S**2>=0.000
       6 -> 12         0.24220
       7 ->  9         0.65076

 The electronic state is 1-A1.
 Alpha  occ. eigenvalues --  -20.29375 -11.10570  -1.28043  -0.81599  -0.62584
 Alpha  occ. eigenvalues --   -0.51691  -0.39541  -0.36046
 Alpha virt. eigenvalues --    0.25322   0.63144   0.77368   0.78797

 Mulliken charges:
               1
     1  C   -0.148133
     2  H    0.080004
     3  H    0.080004
     4  O   -0.011875
 Sum of Mulliken charges =   0.00000

 Dipole moment (field-independent basis, Debye):
    X=              0.0000    Y=             -0.0000    Z=             -0.4335  Tot=              0.4335
 Quadrupole moment (field-independent basis, Debye-Ang):
   XX=            -11.4181   YY=             -9.4840   ZZ=            -11.0753
   XY=              0.0000   XZ=             -0.0000   YZ=              0.0000

  Exact polarizability:       2.076       0.000       6.387      -0.000       0.000      10.917
 Approx polarizability:       1.861       0.000       4.749      -0.000       0.000      14.824

 ******    1 imaginary frequencies (negative Signs) ******

                      1                      2                      3
                     B1                     B2                     A1
 Frequencies --   -464.0053              1081.0225              1562.0190
 Red. masses --      1.3223                 1.2920                 1.1711
 Frc consts  --      0.1677                 0.8896                 1.6835
 IR Inten    --    132.0061                 8.6734                 4.7105

                      4                      5                      6
                     A1                     A1                     B2
 Frequencies --   1811.2506              3627.6353              3795.8413
 Red. masses --      5.1704                 1.0529                 1.1190
 Frc consts  --      9.9939                 8.1638                 9.4990
 IR Inten    --     21.6225                42.9355                 6.3415

 - Thermochemistry -
 -------------------
 Temperature   298.150 Kelvin.  Pressure   1.00000 Atm.
 Atom     1 has atomic number  6 and mass  12.00000

 Molecular mass:    30.01056 amu.
 Principal axes and moments of inertia in atomic units:
                           1         2         3
     Eigenvalues --     6.39795  52.48337  58.88132
           X           -0.00000   0.00000   1.00000
           Y            0.00000   1.00000   0.00000
           Z            1.00000  -0.00000   0.00000
 This molecule is an asymmetric top.
 Rotational symmetry number  2.
 Rotational temperatures (Kelvin)     13.53777     1.65031     1.47099
 Rotational constants (GHZ):         282.08132    34.38692    30.65049
    1 imaginary frequencies ignored.
 Zero-point vibrational energy      71044.8 (Joules/Mol)
                                   16.98012 (Kcal/Mol)
 Vibrational temperatures:   1555.35  2247.40  2605.99  5219.36  5461.37
          (Kelvin)

 Zero-point correction=                           0.027060 (Hartree/Particle)
 Thermal correction to Energy=                    0.029924
 Thermal correction to Enthalpy=                  0.030868
 Thermal correction to Gibbs Free Energy=         0.005941
 Sum of electronic and zero-point Energies=           -112.187067
 Sum of electronic and thermal Energies=              -112.184202
 Sum of electronic and thermal Enthalpies=            -112.183258
 Sum of electronic and thermal Free Energies=         -112.208185

                     E (Thermal)             CV                S
                      KCal/Mol        Cal/Mol-Kelvin    Cal/Mol-Kelvin
 Total                   18.778              6.343             52.464
 Electronic               0.000              0.000              0.000
 Translational            0.889              2.981             36.130
 Rotational               0.889              2.981             16.254
 Vibrational             17.000              0.381              0.079

 Optimization completed.
    -- Stationary point found.
 Normal termination of Gaussian 16 at Thu Feb 22 18:09:41 2024.
