 Gaussian 16, Revision C.01,
 Gaussian 16:  ES64L-G16RevC.01  3-Jul-2019

 ----------------------------------------------------
 # cam-b3lyp/tzvp Opt Freq=SaveNormalModes geom=check
 ----------------------------------------------------

 Excited state optimization and frequency calculation, to be followed b
 y FC-HT analysis.
 ----------------------------------------------------------------------
 Structure from the checkpoint file:  "/rds/general/user/rk820/home/dibs-g16/fc_ht/exercise_8-7/Acrolein_es.chk"
 Charge =  0 Multiplicity = 1

 SCF Done:  E(RCAM-B3LYP) =  -191.888278987     A.U. after   14 cycles
 SCF Done:  E(RCAM-B3LYP) =  -191.888408939     A.U. after   10 cycles
 SCF Done:  E(RCAM-B3LYP) =  -191.888413481     A.U. after    8 cycles
 Optimization completed.
    -- Stationary point found.
 Normal termination of Gaussian 16 at Thu Feb  8 12:29:37 2024.

 --------------------------------------------------------------------
 #N Geom=AllCheck Guess=TCheck SCRF=Check GenChk RCAM-B3LYP/TZVP Freq
 --------------------------------------------------------------------

 ----------------------------------------------------------------------
 Excited state optimization and frequency calculation, to be followed b
 y FC-HT analysis.
 ----------------------------------------------------------------------
 Charge =  0 Multiplicity = 1

                         Standard orientation:
 ---------------------------------------------------------------------
 Center     Atomic      Atomic             Coordinates (Angstroms)
 Number     Number       Type             X           Y           Z
 ---------------------------------------------------------------------
      1          8           0       -1.203901   -1.319927   -0.000000
      2          6           0       -0.145836   -0.745759   -0.000000
      3          1           0        0.806627   -1.312646   -0.000000
      4          6           0       -0.000000    0.717785    0.000000
      5          1           0       -0.917239    1.294729    0.000000
      6          6           0        1.198183    1.284072    0.000000
      7          1           0        2.100795    0.682601    0.000000
      8          1           0        1.326943    2.358141    0.000000
 ---------------------------------------------------------------------

 SCF Done:  E(RCAM-B3LYP) =  -191.888413481     A.U. after    1 cycles

 The electronic state is 1-A'.
 Alpha  occ. eigenvalues --  -19.20361 -10.34305 -10.28144 -10.27250  -1.14175
 Alpha  occ. eigenvalues --   -0.89760  -0.73319  -0.65819  -0.56146  -0.55654
 Alpha  occ. eigenvalues --   -0.50072  -0.48219  -0.46690  -0.36439  -0.33450
 Alpha virt. eigenvalues --   -0.02661   0.08411   0.09475   0.10180   0.13840
 Alpha virt. eigenvalues --    0.15801   0.17535   0.20728   0.23691   0.24075
 Alpha virt. eigenvalues --    0.28009   0.29697   0.32026   0.34895   0.36382

 Mulliken charges:
               1
     1  O   -0.279594
     2  C    0.086558
     3  H    0.067695
     4  C   -0.060171
     5  H    0.165666
     6  C   -0.266448
     7  H    0.143300
     8  H    0.142995
 Sum of Mulliken charges =  -0.00000

 Dipole moment (field-independent basis, Debye):
    X=              2.6124    Y=              2.1339    Z=             -0.0000  Tot=              3.3731
 Quadrupole moment (field-independent basis, Debye-Ang):
   XX=            -24.9833   YY=            -24.3897   ZZ=            -25.2005
   XY=             -2.9372   XZ=             -0.0000   YZ=             -0.0000

  Exact polarizability:      49.377      12.311      43.780      -0.000      -0.000      21.839
 Approx polarizability:      61.283      16.426      46.679       0.000       0.000      25.314

                      1                      2                      3
                     A"                     A'                     A'
 Frequencies --    165.7771               327.7025               581.8265
 Red. masses --      3.3818                 2.6734                 4.9192
 Frc consts  --      0.0548                 0.1692                 0.9811
 IR Inten    --      5.1736                10.9227                 5.4354

                      4                      5                      6
                     A"                     A'                     A"
 Frequencies --    617.9075               933.9844              1018.9916
 Red. masses --      1.1861                 1.5835                 1.2957
 Frc consts  --      0.2668                 0.8139                 0.7927
 IR Inten    --     12.1736                25.0002                59.3111

                      7                      8                      9
                     A"                     A"                     A'
 Frequencies --   1040.7678              1044.4122              1186.1735
 Red. masses --      1.3896                 1.3962                 2.0035
 Frc consts  --      0.8869                 0.8973                 1.6609
 IR Inten    --      1.3934                 9.4233                37.9036

                     10                     11                     12
                     A'                     A'                     A'
 Frequencies --   1313.4652              1408.2351              1469.9769
 Red. masses --      1.4611                 1.1794                 1.2089
 Frc consts  --      1.4851                 1.3780                 1.5391
 IR Inten    --      2.7524                 7.1754                13.8341

                     13                     14                     15
                     A'                     A'                     A'
 Frequencies --   1719.4639              1824.2796              2926.7703
 Red. masses --      4.5284                 9.9087                 1.0841
 Frc consts  --      7.8882                19.4290                 5.4713
 IR Inten    --      1.8348               267.8609                82.4800

                     16                     17                     18
                     A'                     A'                     A'
 Frequencies --   3159.3829              3203.2424              3252.0075
 Red. masses --      1.0611                 1.0949                 1.1155
 Frc consts  --      6.2402                 6.6194                 6.9504
 IR Inten    --      3.6478                 0.8075                 3.4389

 - Thermochemistry -
 -------------------
 Temperature   298.150 Kelvin.  Pressure   1.00000 Atm.
 Atom     1 has atomic number  8 and mass  15.99491

 Molecular mass:    56.02621 amu.
 Principal axes and moments of inertia in atomic units:
                           1         2         3
     Eigenvalues --    37.34707 384.21034 421.55742
           X            0.62334   0.78195   0.00000
           Y            0.78195  -0.62334   0.00000
           Z            0.00000   0.00000   1.00000
 This molecule is an asymmetric top.
 Rotational symmetry number  1.
 Rotational temperatures (Kelvin)      2.31916     0.22543     0.20546
 Rotational constants (GHZ):          48.32350     4.69727     4.28113
 Zero-point vibrational energy     162658.4 (Joules/Mol)
                                   38.87630 (Kcal/Mol)
 Warning -- explicit consideration of   4 degrees of freedom as
           vibrations may cause significant error
 Vibrational temperatures:    238.52   471.49   837.12   889.03  1343.80
          (Kelvin)           1466.10  1497.43  1502.68  1706.64  1889.78
                             2026.14  2114.97  2473.93  2624.73  4210.97
                             4545.65  4608.75  4678.91

 Zero-point correction=                           0.061953 (Hartree/Particle)
 Thermal correction to Energy=                    0.066298
 Thermal correction to Enthalpy=                  0.067242
 Thermal correction to Gibbs Free Energy=         0.035675
 Sum of electronic and zero-point Energies=           -191.826460
 Sum of electronic and thermal Energies=              -191.822116
 Sum of electronic and thermal Enthalpies=            -191.821171
 Sum of electronic and thermal Free Energies=         -191.852739

                     E (Thermal)             CV                S
                      KCal/Mol        Cal/Mol-Kelvin    Cal/Mol-Kelvin
 Total                   41.603             13.608             66.439
 Electronic               0.000              0.000              0.000
 Translational            0.889              2.981             37.991
 Rotational               0.889              2.981             23.318
 Vibrational             39.825              7.647              5.130
 Vibration     1          0.624              1.885              2.483
 Vibration     2          0.711              1.620              1.271
 Vibration     3          0.939              1.071              0.482
 Vibration     4          0.978              0.994              0.420

 Optimization completed.
    -- Stationary point found.
 Normal termination of Gaussian 16 at Thu Feb  8 12:29:45 2024.
