 Gaussian 16, Revision C.01,
 Gaussian 16:  ES64L-G16RevC.01  3-Jul-2019

 ------------------------------------------
 # cam-b3lyp/tzvp td=(nstates=5) geom=check
 ------------------------------------------

 ---------------------------------------------------------------
 TD-DFT for Acrolein, calculating the first five excited states.
 ---------------------------------------------------------------
 Structure from the checkpoint file:  "/rds/general/user/rk820/home/dibs-g16/fc_ht/exercise_8-7/Acrolein_TD.chk"
 Charge =  0 Multiplicity = 1

                         Standard orientation:
 ---------------------------------------------------------------------
 Center     Atomic      Atomic             Coordinates (Angstroms)
 Number     Number       Type             X           Y           Z
 ---------------------------------------------------------------------
      1          8           0       -1.203752   -1.320104   -0.000000
      2          6           0       -0.145820   -0.746174   -0.000000
      3          1           0        0.807526   -1.312485   -0.000000
      4          6           0       -0.000000    0.717918    0.000000
      5          1           0       -0.917943    1.294042    0.000000
      6          6           0        1.197975    1.284506    0.000000
      7          1           0        2.100788    0.683201   -0.000000
      8          1           0        1.326717    2.358569    0.000000
 ---------------------------------------------------------------------

 SCF Done:  E(RCAM-B3LYP) =  -191.888413759     A.U. after   14 cycles

 Excitation energies and oscillator strengths:

 Excited State   1:      Singlet-A"     3.8399 eV  322.88 nm  f=0.0002  <S**2>=0.000
      15 -> 16         0.68157
      15 -> 17         0.18011
 This state for optimization and/or second-order correction.
 Total Energy, E(TD-HF/TD-DFT) =  -191.747300341
 Copying the excited state density for this state as the 1-particle RhoCI density.

 Excited State   2:      Singlet-A'     6.5660 eV  188.83 nm  f=0.4315  <S**2>=0.000
      14 -> 16         0.69234

 Excited State   3:      Singlet-A"     7.2628 eV  170.71 nm  f=0.0000  <S**2>=0.000
      13 -> 16         0.28903
      15 -> 16        -0.16907
      15 -> 17         0.61276

 Excited State   4:      Singlet-A"     7.8221 eV  158.51 nm  f=0.0007  <S**2>=0.000
      13 -> 16         0.63398
      15 -> 17        -0.27847

 Excited State   5:      Singlet-A"     8.4657 eV  146.45 nm  f=0.0027  <S**2>=0.000
      10 -> 17         0.10214
      11 -> 16         0.68771

 The electronic state is 1-A'.
 Alpha  occ. eigenvalues --  -19.20369 -10.34313 -10.28140 -10.27251  -1.14192
 Alpha  occ. eigenvalues --   -0.89752  -0.73312  -0.65810  -0.56138  -0.55655
 Alpha  occ. eigenvalues --   -0.50083  -0.48226  -0.46683  -0.36441  -0.33451
 Alpha virt. eigenvalues --   -0.02655   0.08409   0.09473   0.10183   0.13839
 Alpha virt. eigenvalues --    0.15800   0.17531   0.20727   0.23692   0.24074
 Alpha virt. eigenvalues --    0.28008   0.29696   0.32027   0.34897   0.36373

 Mulliken charges:
               1
     1  O   -0.279434
     2  C    0.086950
     3  H    0.067536
     4  C   -0.060469
     5  H    0.165623
     6  C   -0.266460
     7  H    0.143248
     8  H    0.143007
 Sum of Mulliken charges =   0.00000

 Dipole moment (field-independent basis, Debye):
    X=              2.6100    Y=              2.1319    Z=              0.0000  Tot=              3.3701
 Quadrupole moment (field-independent basis, Debye-Ang):
   XX=            -24.9810   YY=            -24.3922   ZZ=            -25.2014
   XY=             -2.9343   XZ=              0.0000   YZ=             -0.0000

 1\1\GINC-CX3-2-0\SP\RCAM-B3LYP TD-FC\TZVP\C3H4O1\RK820\22-Feb-2024\0\\
 # cam-b3lyp/tzvp td=(nstates=5) geom=check\\TD-DFT for Acrolein, calcu
 lating the first five excited states.\\0,1\O,0,-3.8501003972,0.6987604
 44,-0.2685075899\C,0,-5.0520752891,0.7609500657,-0.2663358805\H,0,-5.6
 684858401,-0.1602346793,-0.2985043602\C,0,-5.8143562833,2.0186571307,-
 0.2224157827\H,0,-5.234122286,2.9334506657,-0.1904704889\C,0,-7.139552
 3059,2.0139355263,-0.2225806648\H,0,-7.6952836133,1.0829443676,-0.2550
 91592\H,0,-7.7184084252,2.9272228695,-0.1906879685\\Version=ES64L-G16R

 Normal termination of Gaussian 16 at Thu Feb 22 02:21:15 2024.
