 Gaussian 16, Revision C.01,
 Gaussian 16:  ES64L-G16RevC.01  3-Jul-2019

 -------------------------
 # CAM-B3LYP/TZVP Opt Freq
 -------------------------

 e followed up by TD-DFT, excited state opt and freq, and FC-HT analysi
 s.
 ----------------------------------------------------------------------
 Symbolic Z-matrix:
 Charge =  0 Multiplicity = 1

 SCF Done:  E(RCAM-B3LYP) =  -191.878135120     A.U. after   15 cycles
 SCF Done:  E(RCAM-B3LYP) =  -191.888020578     A.U. after   13 cycles
 SCF Done:  E(RCAM-B3LYP) =  -191.888395311     A.U. after   11 cycles
 SCF Done:  E(RCAM-B3LYP) =  -191.888412764     A.U. after    9 cycles
 SCF Done:  E(RCAM-B3LYP) =  -191.888413759     A.U. after    8 cycles
 Optimization completed.
    -- Stationary point found.
 Normal termination of Gaussian 16 at Sun Feb 11 20:48:17 2024.

 --------------------------------------------------------------------
 #N Geom=AllCheck Guess=TCheck SCRF=Check GenChk RCAM-B3LYP/TZVP Freq
 --------------------------------------------------------------------

 Ground state optimization and frequency calculation for acrolein, to b
 e followed up by TD-DFT, excited state opt and freq, and FC-HT analysi
 s.
 ----------------------------------------------------------------------
 Charge =  0 Multiplicity = 1

                         Standard orientation:
 ---------------------------------------------------------------------
 Center     Atomic      Atomic             Coordinates (Angstroms)
 Number     Number       Type             X           Y           Z
 ---------------------------------------------------------------------
      1          8           0       -1.203752   -1.320104   -0.000000
      2          6           0       -0.145820   -0.746174   -0.000000
      3          1           0        0.807526   -1.312485   -0.000000
      4          6           0        0.000000    0.717918    0.000000
      5          1           0       -0.917943    1.294042    0.000000
      6          6           0        1.197975    1.284506    0.000000
      7          1           0        2.100788    0.683201    0.000000
      8          1           0        1.326717    2.358569    0.000000
 ---------------------------------------------------------------------

 SCF Done:  E(RCAM-B3LYP) =  -191.888413759     A.U. after    1 cycles

 The electronic state is 1-A'.
 Alpha  occ. eigenvalues --  -19.20369 -10.34313 -10.28140 -10.27251  -1.14192
 Alpha  occ. eigenvalues --   -0.89752  -0.73312  -0.65810  -0.56138  -0.55655
 Alpha  occ. eigenvalues --   -0.50083  -0.48226  -0.46683  -0.36441  -0.33451
 Alpha virt. eigenvalues --   -0.02655   0.08409   0.09473   0.10183   0.13839
 Alpha virt. eigenvalues --    0.15800   0.17531   0.20727   0.23692   0.24074
 Alpha virt. eigenvalues --    0.28008   0.29696   0.32027   0.34897   0.36373

 Mulliken charges:
               1
     1  O   -0.279434
     2  C    0.086950
     3  H    0.067537
     4  C   -0.060469
     5  H    0.165623
     6  C   -0.266460
     7  H    0.143248
     8  H    0.143007
 Sum of Mulliken charges =   0.00000

 Dipole moment (field-independent basis, Debye):
    X=              2.6100    Y=              2.1319    Z=              0.0000  Tot=              3.3701
 Quadrupole moment (field-independent basis, Debye-Ang):
   XX=            -24.9810   YY=            -24.3922   ZZ=            -25.2014
   XY=             -2.9343   XZ=             -0.0000   YZ=             -0.0000

  Exact polarizability:      49.380      12.299      43.783      -0.000      -0.000      21.840
 Approx polarizability:      61.283      16.409      46.675      -0.000       0.000      25.314

                      1                      2                      3
                     A"                     A'                     A'
 Frequencies --    165.8723               327.6489               581.6238
 Red. masses --      3.3889                 2.6742                 4.9234
 Frc consts  --      0.0549                 0.1691                 0.9813
 IR Inten    --      5.1549                10.9306                 5.3973

                      4                      5                      6
                     A"                     A'                     A"
 Frequencies --    618.3021               933.5285              1019.2929
 Red. masses --      1.1858                 1.5861                 1.2945
 Frc consts  --      0.2671                 0.8144                 0.7924
 IR Inten    --     12.1809                25.2341                59.3151

                      7                      8                      9
                     A"                     A"                     A'
 Frequencies --   1041.1083              1045.0512              1185.6926
 Red. masses --      1.3736                 1.4135                 2.0067
 Frc consts  --      0.8772                 0.9095                 1.6622
 IR Inten    --      1.8281                 8.9786                37.9511

                     10                     11                     12
                     A'                     A'                     A'
 Frequencies --   1313.4077              1408.4586              1469.9686
 Red. masses --      1.4584                 1.1792                 1.2082
 Frc consts  --      1.4822                 1.3782                 1.5381
 IR Inten    --      2.7152                 7.1941                13.7975

                     13                     14                     15
                     A'                     A'                     A'
 Frequencies --   1719.6077              1825.3644              2922.6547
 Red. masses --      4.5242                 9.9133                 1.0841
 Frc consts  --      7.8822                19.4611                 5.4559
 IR Inten    --      1.8215               267.9462                82.8608

                     16                     17                     18
                     A'                     A'                     A'
 Frequencies --   3158.9613              3201.8109              3251.7539
 Red. masses --      1.0611                 1.0950                 1.1154
 Frc consts  --      6.2389                 6.6136                 6.9489
 IR Inten    --      3.6728                 0.8254                 3.4212

 - Thermochemistry -
 -------------------
 Temperature   298.150 Kelvin.  Pressure   1.00000 Atm.
 Atom     1 has atomic number  8 and mass  15.99491

 Molecular mass:    56.02621 amu.
 Principal axes and moments of inertia in atomic units:
                           1         2         3
     Eigenvalues --    37.35598 384.27847 421.63445
           X            0.62319   0.78207   0.00000
           Y            0.78207  -0.62319   0.00000
           Z            0.00000   0.00000   1.00000
 This molecule is an asymmetric top.
 Rotational symmetry number  1.
 Rotational temperatures (Kelvin)      2.31861     0.22539     0.20542
 Rotational constants (GHZ):          48.31197     4.69644     4.28035
 Zero-point vibrational energy     162633.0 (Joules/Mol)
                                   38.87021 (Kcal/Mol)
 Warning -- explicit consideration of   4 degrees of freedom as
           vibrations may cause significant error
 Vibrational temperatures:    238.65   471.41   836.83   889.60  1343.14
          (Kelvin)           1466.54  1497.92  1503.60  1705.95  1889.70
                             2026.46  2114.96  2474.13  2626.29  4205.05
                             4545.04  4606.69  4678.55

 Zero-point correction=                           0.061944 (Hartree/Particle)
 Thermal correction to Energy=                    0.066288
 Thermal correction to Enthalpy=                  0.067232
 Thermal correction to Gibbs Free Energy=         0.035665
 Sum of electronic and zero-point Energies=           -191.826470
 Sum of electronic and thermal Energies=              -191.822126
 Sum of electronic and thermal Enthalpies=            -191.821182
 Sum of electronic and thermal Free Energies=         -191.852749

                     E (Thermal)             CV                S
                      KCal/Mol        Cal/Mol-Kelvin    Cal/Mol-Kelvin
 Total                   41.596             13.607             66.439
 Electronic               0.000              0.000              0.000
 Translational            0.889              2.981             37.991
 Rotational               0.889              2.981             23.319
 Vibrational             39.819              7.646              5.129
 Vibration     1          0.624              1.884              2.482
 Vibration     2          0.711              1.620              1.272
 Vibration     3          0.938              1.071              0.482
 Vibration     4          0.978              0.993              0.419

 Optimization completed.
    -- Stationary point found.
 Normal termination of Gaussian 16 at Sun Feb 11 20:48:32 2024.
