 Gaussian 16, Revision C.01,
 Gaussian 16:  ES64L-G16RevC.01  3-Jul-2019

 ------------------------------------------
 # cam-b3lyp/tzvp td=(nstates=5) geom=check
 ------------------------------------------

 ---------------------------------------------------------------
 TD-DFT for Acrolein, calculating the first five excited states.
 ---------------------------------------------------------------
 Structure from the checkpoint file:  "/rds/general/user/rk820/home/dibs-g16/fc_ht/exercise_8-7/Acrolein_TD.chk"
 Charge =  0 Multiplicity = 1

                         Standard orientation:
 ---------------------------------------------------------------------
 Center     Atomic      Atomic             Coordinates (Angstroms)
 Number     Number       Type             X           Y           Z
 ---------------------------------------------------------------------
      1          8           0       -1.208031   -1.326934   -0.000000
      2          6           0       -0.145884   -0.747671   -0.000000
      3          1           0        0.810530   -1.312480   -0.000000
      4          6           0       -0.000000    0.717307    0.000000
      5          1           0       -0.918526    1.294203    0.000000
      6          6           0        1.202021    1.292186    0.000000
      7          1           0        2.108584    0.695390    0.000000
      8          1           0        1.326836    2.367424    0.000000
 ---------------------------------------------------------------------

 SCF Done:  E(RCAM-B3LYP) =  -191.888278987     A.U. after   14 cycles

 Excitation energies and oscillator strengths:

 Excited State   1:      Singlet-A"     3.7992 eV  326.34 nm  f=0.0002  <S**2>=0.000
      15 -> 16         0.68154
      15 -> 17         0.18049
 This state for optimization and/or second-order correction.
 Total Energy, E(TD-HF/TD-DFT) =  -191.748659767
 Copying the excited state density for this state as the 1-particle RhoCI density.

 Excited State   2:      Singlet-A'     6.4982 eV  190.80 nm  f=0.4341  <S**2>=0.000
      14 -> 16         0.69301

 Excited State   3:      Singlet-A"     7.2409 eV  171.23 nm  f=0.0000  <S**2>=0.000
      13 -> 16         0.29983
      15 -> 16        -0.16812
      15 -> 17         0.60776

 Excited State   4:      Singlet-A"     7.7783 eV  159.40 nm  f=0.0007  <S**2>=0.000
      13 -> 16         0.62858
      15 -> 17        -0.28806

 Excited State   5:      Singlet-A"     8.3920 eV  147.74 nm  f=0.0027  <S**2>=0.000
      10 -> 17         0.10145
      11 -> 16         0.68709

 The electronic state is 1-A'.
 Alpha  occ. eigenvalues --  -19.20418 -10.34451 -10.28328 -10.27441  -1.13857
 Alpha  occ. eigenvalues --   -0.89626  -0.73407  -0.65772  -0.56043  -0.55616
 Alpha  occ. eigenvalues --   -0.50002  -0.48033  -0.46723  -0.36340  -0.33491
 Alpha virt. eigenvalues --   -0.02867   0.08295   0.09415   0.10168   0.13795
 Alpha virt. eigenvalues --    0.15742   0.17484   0.20723   0.23700   0.23992
 Alpha virt. eigenvalues --    0.27962   0.29725   0.31942   0.34813   0.36278

 Mulliken charges:
               1
     1  O   -0.281701
     2  C    0.086533
     3  H    0.069069
     4  C   -0.061663
     5  H    0.166003
     6  C   -0.265567
     7  H    0.143636
     8  H    0.143691
 Sum of Mulliken charges =  -0.00000

 Dipole moment (field-independent basis, Debye):
    X=              2.6425    Y=              2.1638    Z=              0.0000  Tot=              3.4154
 Quadrupole moment (field-independent basis, Debye-Ang):
   XX=            -24.9771   YY=            -24.4156   ZZ=            -25.2482
   XY=             -2.9407   XZ=              0.0000   YZ=             -0.0000

 1\1\GINC-CX3-1-5\SP\RCAM-B3LYP TD-FC\TZVP\C3H4O1\RK820\11-Feb-2024\0\\
 # cam-b3lyp/tzvp td=(nstates=5) geom=check\\TD-DFT for Acrolein, calcu
 lating the first five excited states.\\0,1\O,0,-3.839649328,0.69646939
 81,-0.268587595\C,0,-5.0478350543,0.7595851661,-0.2663835439\H,0,-5.66
 60810728,-0.1626257286,-0.2985878575\C,0,-5.8127131761,2.0167557246,-0
 .2224821812\H,0,-5.2338570817,2.9334885295,-0.1904691667\C,0,-7.145131
 8388,2.015487204,-0.222526479\H,0,-7.7045967193,1.0859891016,-0.254985
 2675\H,0,-7.7225201689,2.930536995,-0.1905722367\\Version=ES64L-G16Rev

 Normal termination of Gaussian 16 at Sun Feb 11 20:48:13 2024.
