 Gaussian 16, Revision C.01,
 Gaussian 16:  ES64L-G16RevC.01  3-Jul-2019

 ---------------------
 # B3LYP/TZVP Opt Freq
 ---------------------

 e followed up by TD-DFT, excited state opt and freq, and FC-HT analysi
 s.
 ----------------------------------------------------------------------
 Symbolic Z-matrix:
 Charge =  0 Multiplicity = 1

 SCF Done:  E(RB3LYP) =  -191.978345558     A.U. after   14 cycles
 SCF Done:  E(RB3LYP) =  -191.986835249     A.U. after   12 cycles
 SCF Done:  E(RB3LYP) =  -191.987179746     A.U. after   11 cycles
 SCF Done:  E(RB3LYP) =  -191.987194801     A.U. after    8 cycles
 SCF Done:  E(RB3LYP) =  -191.987195612     A.U. after    8 cycles
 Optimization completed.
    -- Stationary point found.
 Normal termination of Gaussian 16 at Fri Feb  2 23:09:36 2024.

 ----------------------------------------------------------------
 #N Geom=AllCheck Guess=TCheck SCRF=Check GenChk RB3LYP/TZVP Freq
 ----------------------------------------------------------------

 Ground state optimization and frequency calculation for acrolein, to b
 e followed up by TD-DFT, excited state opt and freq, and FC-HT analysi
 s.
 ----------------------------------------------------------------------
 Charge =  0 Multiplicity = 1

                         Standard orientation:
 ---------------------------------------------------------------------
 Center     Atomic      Atomic             Coordinates (Angstroms)
 Number     Number       Type             X           Y           Z
 ---------------------------------------------------------------------
      1          8           0       -1.208031   -1.326934   -0.000000
      2          6           0       -0.145884   -0.747671   -0.000000
      3          1           0        0.810530   -1.312480   -0.000000
      4          6           0       -0.000000    0.717307    0.000000
      5          1           0       -0.918526    1.294203    0.000000
      6          6           0        1.202021    1.292186    0.000000
      7          1           0        2.108584    0.695390    0.000000
      8          1           0        1.326836    2.367424    0.000000
 ---------------------------------------------------------------------

 SCF Done:  E(RB3LYP) =  -191.987195612     A.U. after    1 cycles

 The electronic state is 1-A'.
 Alpha  occ. eigenvalues --  -19.13223 -10.26919 -10.21141 -10.20276  -1.05854
 Alpha  occ. eigenvalues --   -0.81576  -0.65924  -0.58419  -0.49109  -0.48769
 Alpha  occ. eigenvalues --   -0.43325  -0.41298  -0.40423  -0.30739  -0.27112
 Alpha virt. eigenvalues --   -0.07997   0.02853   0.05223   0.05896   0.09578
 Alpha virt. eigenvalues --    0.11532   0.13194   0.16510   0.19182   0.19506
 Alpha virt. eigenvalues --    0.23316   0.25296   0.27379   0.29758   0.31531

 Mulliken charges:
               1
     1  O   -0.278075
     2  C    0.085357
     3  H    0.057085
     4  C   -0.038531
     5  H    0.151280
     6  C   -0.250902
     7  H    0.137084
     8  H    0.136700
 Sum of Mulliken charges =   0.00000

 Dipole moment (field-independent basis, Debye):
    X=              2.5677    Y=              2.1787    Z=              0.0000  Tot=              3.3675
 Quadrupole moment (field-independent basis, Debye-Ang):
   XX=            -24.9332   YY=            -24.3514   ZZ=            -25.1337
   XY=             -2.8344   XZ=              0.0000   YZ=             -0.0000

  Exact polarizability:      49.977      12.653      45.463       0.000      -0.000      22.001
 Approx polarizability:      83.277      26.794      63.583      -0.000       0.000      29.855

                      1                      2                      3
                     A"                     A'                     A'
 Frequencies --    169.9613               324.2179               575.1073
 Red. masses --      3.4241                 2.6798                 4.9643
 Frc consts  --      0.0583                 0.1660                 0.9674
 IR Inten    --      4.5071                10.0827                 5.0904

                      4                      5                      6
                     A"                     A'                     A"
 Frequencies --    611.5261               923.6476              1002.3332
 Red. masses --      1.1804                 1.6130                 1.3090
 Frc consts  --      0.2601                 0.8108                 0.7748
 IR Inten    --     10.9077                25.5921                50.5206

                      7                      8                      9
                     A"                     A"                     A'
 Frequencies --   1024.5136              1036.5919              1173.3158
 Red. masses --      1.5946                 1.2261                 2.0565
 Frc consts  --      0.9861                 0.7763                 1.6680
 IR Inten    --      3.8909                11.5223                38.8378

                     10                     11                     12
                     A'                     A'                     A'
 Frequencies --   1304.3323              1398.0603              1460.9069
 Red. masses --      1.4365                 1.1928                 1.2153
 Frc consts  --      1.4399                 1.3736                 1.5283
 IR Inten    --      2.1017                 7.0575                11.2479

                     13                     14                     15
                     A'                     A'                     A'
 Frequencies --   1680.9122              1773.8942              2881.0439
 Red. masses --      4.1062                 9.5864                 1.0831
 Frc consts  --      6.8357                17.7729                 5.2967
 IR Inten    --      2.1256               252.7277                96.4087

                     16                     17                     18
                     A'                     A'                     A'
 Frequencies --   3136.9472              3175.0120              3228.0781
 Red. masses --      1.0601                 1.0934                 1.1148
 Frc consts  --      6.1466                 6.4941                 6.8446
 IR Inten    --      5.1923                 1.8076                 5.0788

 - Thermochemistry -
 -------------------
 Temperature   298.150 Kelvin.  Pressure   1.00000 Atm.
 Atom     1 has atomic number  8 and mass  15.99491

 Molecular mass:    56.02621 amu.
 Principal axes and moments of inertia in atomic units:
                           1         2         3
     Eigenvalues --    37.37168 387.54893 424.92062
           X            0.62287   0.78232   0.00000
           Y            0.78232  -0.62287   0.00000
           Z            0.00000   0.00000   1.00000
 This molecule is an asymmetric top.
 Rotational symmetry number  1.
 Rotational temperatures (Kelvin)      2.31763     0.22349     0.20384
 Rotational constants (GHZ):          48.29167     4.65681     4.24724
 Zero-point vibrational energy     160780.5 (Joules/Mol)
                                   38.42746 (Kcal/Mol)
 Warning -- explicit consideration of   4 degrees of freedom as
           vibrations may cause significant error
 Vibrational temperatures:    244.54   466.48   827.45   879.85  1328.92
          (Kelvin)           1442.13  1474.05  1491.42  1688.14  1876.64
                             2011.50  2101.92  2418.46  2552.24  4145.18
                             4513.37  4568.13  4644.48

 Zero-point correction=                           0.061238 (Hartree/Particle)
 Thermal correction to Energy=                    0.065597
 Thermal correction to Enthalpy=                  0.066541
 Thermal correction to Gibbs Free Energy=         0.034956
 Sum of electronic and zero-point Energies=           -191.925958
 Sum of electronic and thermal Energies=              -191.921599
 Sum of electronic and thermal Enthalpies=            -191.920655
 Sum of electronic and thermal Free Energies=         -191.952239

                     E (Thermal)             CV                S
                      KCal/Mol        Cal/Mol-Kelvin    Cal/Mol-Kelvin
 Total                   41.163             13.723             66.475
 Electronic               0.000              0.000              0.000
 Translational            0.889              2.981             37.991
 Rotational               0.889              2.981             23.336
 Vibrational             39.385              7.761              5.149
 Vibration     1          0.625              1.879              2.436
 Vibration     2          0.709              1.627              1.289
 Vibration     3          0.931              1.085              0.495
 Vibration     4          0.971              1.007              0.430

 Optimization completed.
    -- Stationary point found.
 Normal termination of Gaussian 16 at Fri Feb  2 23:09:46 2024.
