 Gaussian 16, Revision C.01,
 Gaussian 16:  ES64L-G16RevC.01  3-Jul-2019

 ----------------------------
 # B3LYP/TZVP Freq geom=check
 ----------------------------

 d state and FC-HT analysis. Step two, frequency calculation,following
 optimization.
 ----------------------------------------------------------------------
 Structure from the checkpoint file:  "/rds/general/user/rk820/home/dibs-g16/fc_ht/exercise_8-7/DPB_gs_freq.chk"
 Charge =  0 Multiplicity = 1

                         Standard orientation:
 ---------------------------------------------------------------------
 Center     Atomic      Atomic             Coordinates (Angstroms)
 Number     Number       Type             X           Y           Z
 ---------------------------------------------------------------------
      1          6           0        5.830863    0.000085   -0.421170
      2          6           0        5.167620    1.201746   -0.193181
      3          6           0        3.851430    1.198586    0.257236
      4          6           0        3.171604   -0.000020    0.487947
      5          6           0        3.851479   -1.198571    0.257108
      6          6           0        5.167671   -1.201628   -0.193312
      7          1           0        6.856800    0.000123   -0.768572
      8          1           0        5.677073    2.143163   -0.361406
      9          1           0        3.345340    2.140838    0.438340
     10          1           0        3.345431   -2.140865    0.438109
     11          1           0        5.677165   -2.143004   -0.361637
     12          6           0        1.729878   -0.000080    0.938486
     13          1           0        1.543877   -0.876863    1.566189
     14          1           0        1.543830    0.876643    1.566267
     15          6           0        0.729249   -0.000053   -0.230431
     16          1           0        0.916563   -0.875274   -0.861582
     17          1           0        0.916512    0.875230   -0.861508
     18          6           0       -0.729251   -0.000099    0.230428
     19          1           0       -0.916507   -0.875325    0.861585
     20          1           0       -0.916542    0.875176    0.861515
     21          6           0       -1.729870   -0.000164   -0.938463
     22          1           0       -1.543892   -0.876962   -1.566156
     23          1           0       -1.543828    0.876534   -1.566284
     24          6           0       -3.171601   -0.000064   -0.487934
     25          6           0       -3.851515   -1.198589   -0.257083
     26          6           0       -3.851396    1.198570   -0.257264
     27          6           0       -5.167713   -1.201598    0.193328
     28          1           0       -3.345496   -2.140902   -0.438062
     29          6           0       -5.167584    1.201777    0.193146
     30          1           0       -3.345273    2.140800   -0.438390
     31          6           0       -5.830865    0.000137    0.421162
     32          1           0       -5.677231   -2.142959    0.361664
     33          1           0       -5.677019    2.143207    0.361348
     34          1           0       -6.856804    0.000226    0.768557
 ---------------------------------------------------------------------

 SCF Done:  E(RB3LYP) =  -620.762218470     A.U. after   19 cycles

 The electronic state is 1-A.
 Alpha  occ. eigenvalues --  -10.18262 -10.18262 -10.17532 -10.17532 -10.17525
 Alpha  occ. eigenvalues --  -10.17525 -10.17459 -10.17459 -10.17339 -10.17339
 Alpha  occ. eigenvalues --  -10.17319 -10.17319 -10.17315 -10.17315 -10.17099
 Alpha  occ. eigenvalues --  -10.17078  -0.86303  -0.86172  -0.81182  -0.78283
 Alpha  occ. eigenvalues --   -0.74843  -0.74818  -0.74817  -0.70478  -0.65013
 Alpha  occ. eigenvalues --   -0.60898  -0.60875  -0.60035  -0.58043  -0.57886
 Alpha  occ. eigenvalues --   -0.51751  -0.51327  -0.48697  -0.46811  -0.46029
 Alpha  occ. eigenvalues --   -0.45911  -0.44651  -0.43187  -0.42460  -0.42417
 Alpha  occ. eigenvalues --   -0.42309  -0.40276  -0.40007  -0.38829  -0.36403
 Alpha  occ. eigenvalues --   -0.36249  -0.36142  -0.34659  -0.34622  -0.34263
 Alpha  occ. eigenvalues --   -0.33862  -0.33057  -0.32582  -0.25694  -0.25668
 Alpha  occ. eigenvalues --   -0.25089  -0.24508
 Alpha virt. eigenvalues --   -0.01344  -0.01319  -0.01247  -0.00905   0.02961
 Alpha virt. eigenvalues --    0.04673   0.05637   0.05727   0.06243   0.07501
 Alpha virt. eigenvalues --    0.07905   0.09157   0.09566   0.10095   0.10483

 Mulliken charges:
               1
     1  C   -0.127273
     2  C   -0.080672
     3  C   -0.169663
     4  C    0.149708
     5  C   -0.169666
     6  C   -0.080672
     7  H    0.109808
     8  H    0.106724
     9  H    0.105238
    10  H    0.105239
    11  H    0.106724
    12  C   -0.324062
    13  H    0.132888
    14  H    0.132884
    15  C   -0.224222
    16  H    0.113507
    17  H    0.113508
    18  C   -0.224219
    19  H    0.113506
    20  H    0.113508
    21  C   -0.324059
    22  H    0.132888
    23  H    0.132884
    24  C    0.149700
    25  C   -0.169661
    26  C   -0.169661
    27  C   -0.080674
    28  H    0.105239
    29  C   -0.080673
    30  H    0.105239
    31  C   -0.127272
    32  H    0.106724
    33  H    0.106724
    34  H    0.109808
 Sum of Mulliken charges =  -0.00000

 Dipole moment (field-independent basis, Debye):
    X=             -0.0000    Y=             -0.0000    Z=             -0.0000  Tot=              0.0000
 Quadrupole moment (field-independent basis, Debye-Ang):
   XX=            -96.3103   YY=            -89.4246   ZZ=           -103.2983
   XY=             -0.0000   XZ=             -4.2031   YZ=             -0.0001

  Exact polarizability:     248.327      -0.000     178.761     -24.400      -0.000     117.519
 Approx polarizability:     315.333      -0.000     311.920     -44.545      -0.001     186.239

                      1                      2                      3
                      A                      A                      A
 Frequencies --     16.0150                22.8744                36.6430
 Red. masses --      3.6994                 4.0286                 3.0501
 Frc consts  --      0.0006                 0.0012                 0.0024
 IR Inten    --      0.0054                 0.0143                 0.0000

                      4                      5                      6
                      A                      A                      A
 Frequencies --     41.9908                82.3401               111.1245
 Red. masses --      4.5041                 5.1310                 2.4149
 Frc consts  --      0.0047                 0.0205                 0.0176
 IR Inten    --      0.0095                 0.0000                 0.0770

                      7                      8                      9
                      A                      A                      A
 Frequencies --    117.7335               195.3813               206.0905
 Red. masses --      1.8581                 4.1740                 5.0488
 Frc consts  --      0.0152                 0.0939                 0.1263
 IR Inten    --      0.0000                 2.3706                 0.0000

                     10                     11                     12
                      A                      A                      A
 Frequencies --    341.2721               342.6602               350.6945
 Red. masses --      3.6430                 2.2718                 3.8617
 Frc consts  --      0.2500                 0.1572                 0.2798
 IR Inten    --      0.0000                 0.1692                 0.0298

                     13                     14                     15
                      A                      A                      A
 Frequencies --    350.8548               411.5130               411.5639
 Red. masses --      2.3480                 3.0149                 3.0146
 Frc consts  --      0.1703                 0.3008                 0.3008
 IR Inten    --      0.0000                 0.0002                 0.0000

                     16                     17                     18
                      A                      A                      A
 Frequencies --    502.6798               521.8464               590.0340
 Red. masses --      3.6401                 3.0898                 5.3076
 Frc consts  --      0.5419                 0.4957                 1.0887
 IR Inten    --     16.7854                 0.0000                 0.0000

                     19                     20                     21
                      A                      A                      A
 Frequencies --    608.6857               640.0820               640.1271
 Red. masses --      4.0633                 6.3393                 6.3409
 Frc consts  --      0.8870                 1.5303                 1.5309
 IR Inten    --     11.0917                 0.0000                 0.0447

                     22                     23                     24
                      A                      A                      A
 Frequencies --    700.6238               702.5499               736.5138
 Red. masses --      2.1286                 1.9490                 1.0778
 Frc consts  --      0.6156                 0.5668                 0.3445
 IR Inten    --      0.0000                71.2417                 1.2494

                     25                     26                     27
                      A                      A                      A
 Frequencies --    760.0876               761.7124               784.7094
 Red. masses --      1.6753                 1.9113                 1.2151
 Frc consts  --      0.5703                 0.6534                 0.4408
 IR Inten    --      0.0000                71.7955                 0.0000

                     28                     29                     30
                      A                      A                      A
 Frequencies --    827.1624               828.7444               854.4724
 Red. masses --      3.6156                 4.3557                 1.2496
 Frc consts  --      1.4575                 1.7626                 0.5375
 IR Inten    --      3.0792                 0.0000                 0.0098

                     31                     32                     33
                      A                      A                      A
 Frequencies --    854.8918               910.3267               917.0644
 Red. masses --      1.2488                 1.3860                 1.4195
 Frc consts  --      0.5377                 0.6767                 0.7034
 IR Inten    --      0.0000                 0.1478                 0.0000

                     34                     35                     36
                      A                      A                      A
 Frequencies --    921.5230               958.3132               958.4068
 Red. masses --      1.4763                 1.3444                 1.3440
 Frc consts  --      0.7387                 0.7274                 0.7274
 IR Inten    --      3.3137                 0.0000                 0.0276

                     37                     38                     39
                      A                      A                      A
 Frequencies --    977.9919               978.2058              1001.7908
 Red. masses --      1.2222                 1.2103                 3.9356
 Frc consts  --      0.6887                 0.6824                 2.3271
 IR Inten    --      0.2241                 0.0000                 1.4546

                     40                     41                     42
                      A                      A                      A
 Frequencies --   1022.1311              1022.5268              1046.4220
 Red. masses --      6.2894                 6.2736                 2.6721
 Frc consts  --      3.8714                 3.8647                 1.7239
 IR Inten    --      0.0000                 0.0125                 0.0000

                     43                     44                     45
                      A                      A                      A
 Frequencies --   1053.3217              1053.4885              1056.9454
 Red. masses --      2.1986                 2.2111                 1.6466
 Frc consts  --      1.4372                 1.4458                 1.0838
 IR Inten    --     10.2207                 0.0000                 0.0000

                     46                     47                     48
                      A                      A                      A
 Frequencies --   1061.4928              1090.2782              1122.0406
 Red. masses --      5.3059                 1.4994                 1.4761
 Frc consts  --      3.5224                 1.0501                 1.0949
 IR Inten    --      0.0000                 8.2345                 0.0000

                     49                     50                     51
                      A                      A                      A
 Frequencies --   1148.2938              1187.1380              1187.3021
 Red. masses --      1.1894                 1.1183                 1.1137
 Frc consts  --      0.9240                 0.9286                 0.9250
 IR Inten    --      4.9858                 0.0000                 0.0295

                     52                     53                     54
                      A                      A                      A
 Frequencies --   1207.4362              1207.5752              1226.2461
 Red. masses --      1.1455                 1.1452                 2.6655
 Frc consts  --      0.9840                 0.9839                 2.3615
 IR Inten    --      0.2394                 0.0000                 2.2456

                     55                     56                     57
                      A                      A                      A
 Frequencies --   1226.7631              1257.7602              1262.6538
 Red. masses --      2.6785                 1.2904                 1.5294
 Frc consts  --      2.3750                 1.2027                 1.4366
 IR Inten    --      0.0000                 1.0884                 0.0000

                     58                     59                     60
                      A                      A                      A
 Frequencies --   1313.8421              1331.5390              1334.2646
 Red. masses --      1.6254                 1.0760                 1.4336
 Frc consts  --      1.6531                 1.1240                 1.5037
 IR Inten    --      0.3348                 0.0000                 0.0000

                     61                     62                     63
                      A                      A                      A
 Frequencies --   1340.1206              1343.5595              1367.3581
 Red. masses --      3.8435                 2.5155                 1.2706
 Frc consts  --      4.0669                 2.6754                 1.3997
 IR Inten    --      0.0000                 0.0055                 0.0000

                     64                     65                     66
                      A                      A                      A
 Frequencies --   1368.8864              1377.2172              1392.6614
 Red. masses --      1.2512                 1.4352                 1.5124
 Frc consts  --      1.3814                 1.6038                 1.7282
 IR Inten    --      0.3204                 1.2127                 0.0000

                     67                     68                     69
                      A                      A                      A
 Frequencies --   1489.1361              1489.1759              1489.1863
 Red. masses --      2.1519                 1.0782                 2.1378
 Frc consts  --      2.8116                 1.4088                 2.7932
 IR Inten    --      0.0005                 0.0388                 9.4384

                     70                     71                     72
                      A                      A                      A
 Frequencies --   1490.3292              1502.6280              1515.6957
 Red. masses --      1.0939                 1.1027                 1.1007
 Frc consts  --      1.4315                 1.4669                 1.4899
 IR Inten    --      0.6746                 0.0000                 9.3566

                     73                     74                     75
                      A                      A                      A
 Frequencies --   1531.8528              1532.1697              1624.2131
 Red. masses --      2.1998                 2.1995                 5.3687
 Frc consts  --      3.0414                 3.0421                 8.3446
 IR Inten    --     30.9412                 0.0000                 0.0001

                     76                     77                     78
                      A                      A                      A
 Frequencies --   1624.2561              1645.2224              1645.8412
 Red. masses --      5.3599                 5.5329                 5.5281
 Frc consts  --      8.3314                 8.8238                 8.8227
 IR Inten    --      2.5319                21.2970                 0.0000

                     79                     80                     81
                      A                      A                      A
 Frequencies --   3010.4806              3014.2378              3023.7610
 Red. masses --      1.0578                 1.0582                 1.0593
 Frc consts  --      5.6483                 5.6646                 5.7062
 IR Inten    --      0.0000                 1.3051                 0.0002

                     82                     83                     84
                      A                      A                      A
 Frequencies --   3029.2356              3031.9772              3045.0111
 Red. masses --      1.0594                 1.1011                 1.1035
 Frc consts  --      5.7276                 5.9637                 6.0284
 IR Inten    --    107.0918                 0.0010                 0.0063

                     85                     86                     87
                      A                      A                      A
 Frequencies --   3062.6601              3073.7782              3156.9430
 Red. masses --      1.1057                 1.1057                 1.0865
 Frc consts  --      6.1104                 6.1549                 6.3799
 IR Inten    --      0.0001                75.2743                21.2743

                     88                     89                     90
                      A                      A                      A
 Frequencies --   3156.9717              3157.8934              3157.9528
 Red. masses --      1.0865                 1.0876                 1.0877
 Frc consts  --      6.3799                 6.3905                 6.3908
 IR Inten    --      0.0002                 0.0000                10.8223

                     91                     92                     93
                      A                      A                      A
 Frequencies --   3171.6084              3171.6256              3179.7643
 Red. masses --      1.0894                 1.0894                 1.0933
 Frc consts  --      6.4563                 6.4565                 6.5131
 IR Inten    --      9.0241                 0.0001                 0.0000

                     94                     95                     96
                      A                      A                      A
 Frequencies --   3179.7965              3192.3756              3192.4373
 Red. masses --      1.0933                 1.0975                 1.0975
 Frc consts  --      6.5133                 6.5902                 6.5904
 IR Inten    --     62.3303                35.6127                 0.0001

 - Thermochemistry -
 -------------------
 Temperature   298.150 Kelvin.  Pressure   1.00000 Atm.
 Atom     1 has atomic number  6 and mass  12.00000

 Molecular mass:   210.14085 amu.
 Principal axes and moments of inertia in atomic units:
                           1         2         3
     Eigenvalues --   836.20321********************
           X            1.00000  -0.00000  -0.00188
           Y            0.00000   1.00000  -0.00000
           Z            0.00188   0.00000   1.00000
 This molecule is an asymmetric top.
 Rotational symmetry number  1.
 Warning -- assumption of classical behavior for rotation
           may cause significant error
 Rotational temperatures (Kelvin)      0.10358     0.00699     0.00674
 Rotational constants (GHZ):           2.15826     0.14559     0.14038
 Zero-point vibrational energy     772636.8 (Joules/Mol)
                                  184.66462 (Kcal/Mol)
 Warning -- explicit consideration of  19 degrees of freedom as
           vibrations may cause significant error
 Vibrational temperatures:     23.04    32.91    52.72    60.42   118.47
          (Kelvin)            159.88   169.39   281.11   296.52   491.01
                              493.01   504.57   504.80   592.08   592.15
                              723.24   750.82   848.93   875.76   920.94
                              921.00  1008.04  1010.81  1059.68  1093.60
                             1095.93  1129.02  1190.10  1192.38  1229.40
                             1230.00  1309.76  1319.45  1325.87  1378.80
                             1378.93  1407.11  1407.42  1441.35  1470.62
                             1471.19  1505.57  1515.50  1515.73  1520.71
                             1527.25  1568.67  1614.37  1652.14  1708.03
                             1708.26  1737.23  1737.43  1764.29  1765.04
                             1809.64  1816.68  1890.33  1915.79  1919.71
                             1928.13  1933.08  1967.32  1969.52  1981.51
                             2003.73  2142.53  2142.59  2142.61  2144.25
                             2161.95  2180.75  2203.99  2204.45  2336.88
                             2336.94  2367.11  2368.00  4331.41  4336.82
                             4350.52  4358.39  4362.34  4381.09  4406.48
                             4422.48  4542.14  4542.18  4543.50  4543.59
                             4563.24  4563.26  4574.97  4575.02  4593.12
                             4593.21

 Zero-point correction=                           0.294282 (Hartree/Particle)
 Thermal correction to Energy=                    0.308775
 Thermal correction to Enthalpy=                  0.309719
 Thermal correction to Gibbs Free Energy=         0.249025
 Sum of electronic and zero-point Energies=           -620.467937
 Sum of electronic and thermal Energies=              -620.453444
 Sum of electronic and thermal Enthalpies=            -620.452499
 Sum of electronic and thermal Free Energies=         -620.513193

                     E (Thermal)             CV                S
                      KCal/Mol        Cal/Mol-Kelvin    Cal/Mol-Kelvin
 Total                  193.759             55.914            127.741
 Electronic               0.000              0.000              0.000
 Translational            0.889              2.981             41.932
 Rotational               0.889              2.981             33.255
 Vibrational            191.982             49.953             52.555
 Vibration     1          0.593              1.986              7.075
 Vibration     2          0.593              1.985              6.368
 Vibration     3          0.594              1.982              5.433
 Vibration     4          0.595              1.980              5.163
 Vibration     5          0.600              1.961              3.834
 Vibration     6          0.607              1.940              3.249
 Vibration     7          0.608              1.935              3.137
 Vibration     8          0.636              1.846              2.176
 Vibration     9          0.641              1.831              2.078
 Vibration    10          0.721              1.593              1.206
 Vibration    11          0.722              1.590              1.200
 Vibration    12          0.728              1.574              1.163
 Vibration    13          0.728              1.574              1.162
 Vibration    14          0.775              1.445              0.921
 Vibration    15          0.776              1.445              0.921
 Vibration    16          0.858              1.244              0.651
 Vibration    17          0.877              1.202              0.606
 Vibration    18          0.947              1.053              0.467
 Vibration    19          0.968              1.013              0.435

 Optimization completed.
    -- Stationary point found.
 Normal termination of Gaussian 16 at Fri Feb  2 04:17:03 2024.
