 Gaussian 16, Revision C.01,
 Gaussian 16:  ES64L-G16RevC.01  3-Jul-2019

 ----------------------------
 # B3LYP/TZVP Freq geom=check
 ----------------------------

 d state and FC-HT analysis. Step two, frequency calculation,following
 optimization.
 ----------------------------------------------------------------------
 Structure from the checkpoint file:  "/rds/general/user/rk820/home/dibs-g16/fc_ht/exercise_8-7/DPB_gs_freq_cpu.chk"
 Charge =  0 Multiplicity = 1

                         Standard orientation:
 ---------------------------------------------------------------------
 Center     Atomic      Atomic             Coordinates (Angstroms)
 Number     Number       Type             X           Y           Z
 ---------------------------------------------------------------------
      1          6           0        5.830871   -0.000199   -0.421125
      2          6           0        5.167842    1.201572   -0.193153
      3          6           0        3.851630    1.198644    0.257234
      4          6           0        3.171591    0.000166    0.487937
      5          6           0        3.851260   -1.198514    0.257094
      6          6           0        5.167452   -1.201803   -0.193292
      7          1           0        6.856822   -0.000364   -0.768487
      8          1           0        5.677448    2.142908   -0.361368
      9          1           0        3.345709    2.140991    0.438309
     10          1           0        3.345025   -2.140713    0.438069
     11          1           0        5.676793   -2.143262   -0.361620
     12          6           0        1.729866    0.000344    0.938454
     13          1           0        1.543798   -0.876186    1.566493
     14          1           0        1.543832    0.877326    1.565876
     15          6           0        0.729236   -0.000043   -0.230479
     16          1           0        0.916527   -0.875512   -0.861288
     17          1           0        0.916523    0.875005   -0.861866
     18          6           0       -0.729273    0.000115    0.230397
     19          1           0       -0.916531   -0.874902    0.861843
     20          1           0       -0.916536    0.875609    0.861185
     21          6           0       -1.729866   -0.000333   -0.938469
     22          1           0       -1.543816   -0.877295   -1.565917
     23          1           0       -1.543862    0.876200   -1.566536
     24          6           0       -3.171600   -0.000185   -0.487952
     25          6           0       -3.851494   -1.198662   -0.256853
     26          6           0       -3.851389    1.198499   -0.257464
     27          6           0       -5.167702   -1.201590    0.193562
     28          1           0       -3.345488   -2.141017   -0.437646
     29          6           0       -5.167568    1.201788    0.192949
     30          1           0       -3.345243    2.140685   -0.438749
     31          6           0       -5.830854    0.000178    0.421168
     32          1           0       -5.677200   -2.142930    0.362079
     33          1           0       -5.677015    2.143237    0.361007
     34          1           0       -6.856792    0.000350    0.768568
 ---------------------------------------------------------------------

 SCF Done:  E(RB3LYP) =  -620.762218466     A.U. after   18 cycles

 The electronic state is 1-A.
 Alpha  occ. eigenvalues --  -10.18262 -10.18262 -10.17532 -10.17532 -10.17526
 Alpha  occ. eigenvalues --  -10.17525 -10.17459 -10.17459 -10.17339 -10.17339
 Alpha  occ. eigenvalues --  -10.17319 -10.17319 -10.17315 -10.17315 -10.17099
 Alpha  occ. eigenvalues --  -10.17078  -0.86303  -0.86172  -0.81182  -0.78283
 Alpha  occ. eigenvalues --   -0.74843  -0.74818  -0.74817  -0.70478  -0.65012
 Alpha  occ. eigenvalues --   -0.60898  -0.60875  -0.60035  -0.58043  -0.57886
 Alpha  occ. eigenvalues --   -0.51751  -0.51327  -0.48697  -0.46811  -0.46029
 Alpha  occ. eigenvalues --   -0.45911  -0.44651  -0.43187  -0.42460  -0.42417
 Alpha  occ. eigenvalues --   -0.42309  -0.40276  -0.40007  -0.38829  -0.36403
 Alpha  occ. eigenvalues --   -0.36249  -0.36142  -0.34659  -0.34622  -0.34263
 Alpha  occ. eigenvalues --   -0.33862  -0.33058  -0.32582  -0.25694  -0.25668
 Alpha  occ. eigenvalues --   -0.25089  -0.24508
 Alpha virt. eigenvalues --   -0.01344  -0.01319  -0.01247  -0.00905   0.02961
 Alpha virt. eigenvalues --    0.04673   0.05637   0.05727   0.06243   0.07501
 Alpha virt. eigenvalues --    0.07905   0.09157   0.09566   0.10095   0.10484

 Mulliken charges:
               1
     1  C   -0.127276
     2  C   -0.080678
     3  C   -0.169654
     4  C    0.149723
     5  C   -0.169690
     6  C   -0.080657
     7  H    0.109808
     8  H    0.106723
     9  H    0.105234
    10  H    0.105241
    11  H    0.106725
    12  C   -0.324065
    13  H    0.132896
    14  H    0.132877
    15  C   -0.224228
    16  H    0.113515
    17  H    0.113501
    18  C   -0.224217
    19  H    0.113505
    20  H    0.113507
    21  C   -0.324052
    22  H    0.132885
    23  H    0.132883
    24  C    0.149720
    25  C   -0.169667
    26  C   -0.169683
    27  C   -0.080670
    28  H    0.105236
    29  C   -0.080663
    30  H    0.105240
    31  C   -0.127276
    32  H    0.106723
    33  H    0.106725
    34  H    0.109808
 Sum of Mulliken charges =  -0.00000

 Dipole moment (field-independent basis, Debye):
    X=             -0.0000    Y=              0.0000    Z=              0.0000  Tot=              0.0000
 Quadrupole moment (field-independent basis, Debye-Ang):
   XX=            -96.3103   YY=            -89.4245   ZZ=           -103.2986
   XY=             -0.0004   XZ=             -4.2033   YZ=             -0.0012

  Exact polarizability:     248.328      -0.002     178.761     -24.400      -0.003     117.518
 Approx polarizability:     315.334      -0.002     311.921     -44.545      -0.008     186.238

                      1                      2                      3
                      A                      A                      A
 Frequencies --     16.0242                22.8800                36.6234
 Red. masses --      3.6994                 4.0286                 3.0497
 Frc consts  --      0.0006                 0.0012                 0.0024
 IR Inten    --      0.0054                 0.0143                 0.0000

                      4                      5                      6
                      A                      A                      A
 Frequencies --     41.9912                82.3399               111.0995
 Red. masses --      4.5041                 5.1310                 2.4149
 Frc consts  --      0.0047                 0.0205                 0.0176
 IR Inten    --      0.0095                 0.0000                 0.0770

                      7                      8                      9
                      A                      A                      A
 Frequencies --    117.7371               195.3793               206.0916
 Red. masses --      1.8582                 4.1740                 5.0488
 Frc consts  --      0.0152                 0.0939                 0.1263
 IR Inten    --      0.0000                 2.3706                 0.0000

                     10                     11                     12
                      A                      A                      A
 Frequencies --    341.2752               342.6612               350.6938
 Red. masses --      3.6428                 2.2719                 3.8503
 Frc consts  --      0.2500                 0.1572                 0.2790
 IR Inten    --      0.0000                 0.1692                 0.0297

                     13                     14                     15
                      A                      A                      A
 Frequencies --    350.8583               411.5137               411.5646
 Red. masses --      2.3523                 3.0149                 3.0146
 Frc consts  --      0.1706                 0.3008                 0.3008
 IR Inten    --      0.0001                 0.0002                 0.0000

                     16                     17                     18
                      A                      A                      A
 Frequencies --    502.6805               521.8481               590.0349
 Red. masses --      3.6401                 3.0898                 5.3076
 Frc consts  --      0.5419                 0.4958                 1.0887
 IR Inten    --     16.7852                 0.0000                 0.0000

                     19                     20                     21
                      A                      A                      A
 Frequencies --    608.6857               640.0819               640.1270
 Red. masses --      4.0633                 6.3393                 6.3409
 Frc consts  --      0.8870                 1.5303                 1.5309
 IR Inten    --     11.0921                 0.0000                 0.0447

                     22                     23                     24
                      A                      A                      A
 Frequencies --    700.6247               702.5510               736.5137
 Red. masses --      2.1285                 1.9489                 1.0778
 Frc consts  --      0.6156                 0.5668                 0.3445
 IR Inten    --      0.0000                71.2461                 1.2492

                     25                     26                     27
                      A                      A                      A
 Frequencies --    760.0896               761.7152               784.7161
 Red. masses --      1.6753                 1.9114                 1.2151
 Frc consts  --      0.5703                 0.6534                 0.4408
 IR Inten    --      0.0001                71.7903                 0.0000

                     28                     29                     30
                      A                      A                      A
 Frequencies --    827.1617               828.7451               854.4727
 Red. masses --      3.6156                 4.3557                 1.2496
 Frc consts  --      1.4575                 1.7626                 0.5375
 IR Inten    --      3.0798                 0.0000                 0.0097

                     31                     32                     33
                      A                      A                      A
 Frequencies --    854.8921               910.3278               917.0656
 Red. masses --      1.2488                 1.3860                 1.4195
 Frc consts  --      0.5377                 0.6767                 0.7034
 IR Inten    --      0.0000                 0.1478                 0.0000

                     34                     35                     36
                      A                      A                      A
 Frequencies --    921.5246               958.3129               958.4066
 Red. masses --      1.4763                 1.3444                 1.3440
 Frc consts  --      0.7387                 0.7274                 0.7274
 IR Inten    --      3.3140                 0.0000                 0.0275

                     37                     38                     39
                      A                      A                      A
 Frequencies --    977.9930               978.2065              1001.8185
 Red. masses --      1.2221                 1.2103                 3.9360
 Frc consts  --      0.6887                 0.6824                 2.3275
 IR Inten    --      0.2242                 0.0000                 1.4542

                     40                     41                     42
                      A                      A                      A
 Frequencies --   1022.1302              1022.5266              1046.4102
 Red. masses --      6.2893                 6.2735                 2.6726
 Frc consts  --      3.8714                 3.8646                 1.7242
 IR Inten    --      0.0000                 0.0125                 0.0000

                     43                     44                     45
                      A                      A                      A
 Frequencies --   1053.3214              1053.4888              1056.9479
 Red. masses --      2.1986                 2.2107                 1.6466
 Frc consts  --      1.4372                 1.4456                 1.0838
 IR Inten    --     10.2204                 0.0006                 0.0000

                     46                     47                     48
                      A                      A                      A
 Frequencies --   1061.4998              1090.2786              1122.0413
 Red. masses --      5.3060                 1.4994                 1.4761
 Frc consts  --      3.5226                 1.0501                 1.0949
 IR Inten    --      0.0000                 8.2346                 0.0000

                     49                     50                     51
                      A                      A                      A
 Frequencies --   1148.2957              1187.1381              1187.3022
 Red. masses --      1.1894                 1.1183                 1.1137
 Frc consts  --      0.9240                 0.9286                 0.9250
 IR Inten    --      4.9859                 0.0000                 0.0295

                     52                     53                     54
                      A                      A                      A
 Frequencies --   1207.4353              1207.5743              1226.2501
 Red. masses --      1.1455                 1.1452                 2.6654
 Frc consts  --      0.9840                 0.9839                 2.3614
 IR Inten    --      0.2393                 0.0000                 2.2452

                     55                     56                     57
                      A                      A                      A
 Frequencies --   1226.7669              1257.7574              1262.6602
 Red. masses --      2.6785                 1.2904                 1.5295
 Frc consts  --      2.3750                 1.2027                 1.4367
 IR Inten    --      0.0001                 1.0891                 0.0000

                     58                     59                     60
                      A                      A                      A
 Frequencies --   1313.8447              1331.5341              1334.2713
 Red. masses --      1.6257                 1.0761                 1.4336
 Frc consts  --      1.6534                 1.1241                 1.5038
 IR Inten    --      0.3348                 0.0000                 0.0000

                     61                     62                     63
                      A                      A                      A
 Frequencies --   1340.1193              1343.5597              1367.3587
 Red. masses --      3.8428                 2.5150                 1.2706
 Frc consts  --      4.0662                 2.6748                 1.3997
 IR Inten    --      0.0000                 0.0055                 0.0000

                     64                     65                     66
                      A                      A                      A
 Frequencies --   1368.8876              1377.2227              1392.6528
 Red. masses --      1.2512                 1.4352                 1.5124
 Frc consts  --      1.3814                 1.6039                 1.7282
 IR Inten    --      0.3204                 1.2132                 0.0000

                     67                     68                     69
                      A                      A                      A
 Frequencies --   1489.1355              1489.1699              1489.1858
 Red. masses --      2.1509                 1.0785                 2.1375
 Frc consts  --      2.8103                 1.4091                 2.7929
 IR Inten    --      0.0000                 0.0399                 9.4376

                     70                     71                     72
                      A                      A                      A
 Frequencies --   1490.3274              1502.6288              1515.6922
 Red. masses --      1.0939                 1.1027                 1.1007
 Frc consts  --      1.4315                 1.4669                 1.4899
 IR Inten    --      0.6736                 0.0000                 9.3571

                     73                     74                     75
                      A                      A                      A
 Frequencies --   1531.8524              1532.1693              1624.2117
 Red. masses --      2.1998                 2.1995                 5.3687
 Frc consts  --      3.0414                 3.0422                 8.3445
 IR Inten    --     30.9413                 0.0003                 0.0003

                     76                     77                     78
                      A                      A                      A
 Frequencies --   1624.2547              1645.2210              1645.8399
 Red. masses --      5.3599                 5.5329                 5.5281
 Frc consts  --      8.3313                 8.8237                 8.8226
 IR Inten    --      2.5317                21.2970                 0.0001

                     79                     80                     81
                      A                      A                      A
 Frequencies --   3010.4973              3014.2438              3023.7488
 Red. masses --      1.0578                 1.0582                 1.0593
 Frc consts  --      5.6483                 5.6646                 5.7062
 IR Inten    --      0.0001                 1.2865                 0.0014

                     82                     83                     84
                      A                      A                      A
 Frequencies --   3029.2339              3032.0000              3045.0159
 Red. masses --      1.0594                 1.1011                 1.1035
 Frc consts  --      5.7276                 5.9638                 6.0284
 IR Inten    --    107.1107                 0.0000                 0.0054

                     85                     86                     87
                      A                      A                      A
 Frequencies --   3062.6514              3073.7862              3156.9425
 Red. masses --      1.1057                 1.1057                 1.0865
 Frc consts  --      6.1104                 6.1550                 6.3799
 IR Inten    --      0.0004                75.2737                21.1970

                     88                     89                     90
                      A                      A                      A
 Frequencies --   3156.9714              3157.8930              3157.9525
 Red. masses --      1.0865                 1.0876                 1.0877
 Frc consts  --      6.3799                 6.3905                 6.3908
 IR Inten    --      0.0762                 0.0142                10.8090

                     91                     92                     93
                      A                      A                      A
 Frequencies --   3171.6071              3171.6243              3179.7643
 Red. masses --      1.0894                 1.0894                 1.0933
 Frc consts  --      6.4563                 6.4565                 6.5131
 IR Inten    --      9.0174                 0.0095                 0.0132

                     94                     95                     96
                      A                      A                      A
 Frequencies --   3179.7965              3192.3743              3192.4360
 Red. masses --      1.0933                 1.0975                 1.0975
 Frc consts  --      6.5133                 6.5902                 6.5904
 IR Inten    --     62.3161                35.6117                 0.0000

 - Thermochemistry -
 -------------------
 Temperature   298.150 Kelvin.  Pressure   1.00000 Atm.
 Atom     1 has atomic number  6 and mass  12.00000

 Molecular mass:   210.14085 amu.
 Principal axes and moments of inertia in atomic units:
                           1         2         3
     Eigenvalues --   836.19830********************
           X            1.00000  -0.00000  -0.00188
           Y            0.00000   1.00000  -0.00000
           Z            0.00188   0.00000   1.00000
 This molecule is an asymmetric top.
 Rotational symmetry number  1.
 Warning -- assumption of classical behavior for rotation
           may cause significant error
 Rotational temperatures (Kelvin)      0.10358     0.00699     0.00674
 Rotational constants (GHZ):           2.15827     0.14559     0.14038
 Zero-point vibrational energy     772637.1 (Joules/Mol)
                                  184.66469 (Kcal/Mol)
 Warning -- explicit consideration of  19 degrees of freedom as
           vibrations may cause significant error
 Vibrational temperatures:     23.06    32.92    52.69    60.42   118.47
          (Kelvin)            159.85   169.40   281.11   296.52   491.02
                              493.01   504.57   504.81   592.08   592.15
                              723.25   750.82   848.93   875.76   920.94
                              921.00  1008.04  1010.81  1059.68  1093.60
                             1095.94  1129.03  1190.10  1192.38  1229.40
                             1230.00  1309.76  1319.45  1325.87  1378.80
                             1378.93  1407.11  1407.42  1441.39  1470.62
                             1471.19  1505.55  1515.49  1515.74  1520.71
                             1527.26  1568.67  1614.37  1652.14  1708.03
                             1708.26  1737.23  1737.43  1764.30  1765.04
                             1809.63  1816.69  1890.33  1915.78  1919.72
                             1928.13  1933.08  1967.32  1969.52  1981.52
                             2003.72  2142.53  2142.58  2142.61  2144.25
                             2161.95  2180.74  2203.99  2204.45  2336.88
                             2336.94  2367.11  2368.00  4331.43  4336.82
                             4350.50  4358.39  4362.37  4381.10  4406.47
                             4422.49  4542.14  4542.18  4543.50  4543.59
                             4563.24  4563.26  4574.97  4575.02  4593.11
                             4593.20

 Zero-point correction=                           0.294282 (Hartree/Particle)
 Thermal correction to Energy=                    0.308775
 Thermal correction to Enthalpy=                  0.309719
 Thermal correction to Gibbs Free Energy=         0.249025
 Sum of electronic and zero-point Energies=           -620.467937
 Sum of electronic and thermal Energies=              -620.453443
 Sum of electronic and thermal Enthalpies=            -620.452499
 Sum of electronic and thermal Free Energies=         -620.513193

                     E (Thermal)             CV                S
                      KCal/Mol        Cal/Mol-Kelvin    Cal/Mol-Kelvin
 Total                  193.759             55.914            127.741
 Electronic               0.000              0.000              0.000
 Translational            0.889              2.981             41.932
 Rotational               0.889              2.981             33.255
 Vibrational            191.982             49.953             52.555
 Vibration     1          0.593              1.986              7.074
 Vibration     2          0.593              1.985              6.367
 Vibration     3          0.594              1.982              5.434
 Vibration     4          0.595              1.980              5.163
 Vibration     5          0.600              1.961              3.834
 Vibration     6          0.607              1.940              3.250
 Vibration     7          0.608              1.935              3.137
 Vibration     8          0.636              1.846              2.176
 Vibration     9          0.641              1.831              2.078
 Vibration    10          0.721              1.593              1.206
 Vibration    11          0.722              1.590              1.200
 Vibration    12          0.728              1.574              1.163
 Vibration    13          0.728              1.573              1.162
 Vibration    14          0.775              1.445              0.921
 Vibration    15          0.776              1.445              0.921
 Vibration    16          0.858              1.244              0.651
 Vibration    17          0.877              1.202              0.606
 Vibration    18          0.947              1.053              0.467
 Vibration    19          0.968              1.013              0.435

 Optimization completed.
    -- Stationary point found.
 Normal termination of Gaussian 16 at Fri Feb  2 23:20:45 2024.
