 Gaussian 16, Revision C.01,
 Gaussian 16:  ES64L-G16RevC.01  3-Jul-2019

 ------------------------------------------
 # cam-b3lyp/tzvp td=(nstates=5) geom=check
 ------------------------------------------

 Time dependent DFT on DPB's ground state to find first 5 excited state
 s. Will be followed by Opt and Freq later.
 ----------------------------------------------------------------------
 Structure from the checkpoint file:  "/rds/general/user/rk820/home/dibs-g16/fc_ht/exercise_8-7/DPB_TD_cpu.chk"
 Charge =  0 Multiplicity = 1

                         Standard orientation:
 ---------------------------------------------------------------------
 Center     Atomic      Atomic             Coordinates (Angstroms)
 Number     Number       Type             X           Y           Z
 ---------------------------------------------------------------------
      1          6           0        5.830871   -0.000199   -0.421125
      2          6           0        5.167842    1.201572   -0.193153
      3          6           0        3.851630    1.198644    0.257234
      4          6           0        3.171591    0.000166    0.487937
      5          6           0        3.851260   -1.198514    0.257094
      6          6           0        5.167452   -1.201803   -0.193292
      7          1           0        6.856822   -0.000364   -0.768487
      8          1           0        5.677448    2.142908   -0.361368
      9          1           0        3.345709    2.140991    0.438309
     10          1           0        3.345025   -2.140713    0.438069
     11          1           0        5.676793   -2.143262   -0.361620
     12          6           0        1.729866    0.000344    0.938454
     13          1           0        1.543798   -0.876186    1.566493
     14          1           0        1.543832    0.877326    1.565876
     15          6           0        0.729236   -0.000043   -0.230479
     16          1           0        0.916527   -0.875512   -0.861288
     17          1           0        0.916523    0.875005   -0.861866
     18          6           0       -0.729273    0.000115    0.230397
     19          1           0       -0.916531   -0.874902    0.861843
     20          1           0       -0.916536    0.875609    0.861185
     21          6           0       -1.729866   -0.000333   -0.938469
     22          1           0       -1.543816   -0.877295   -1.565917
     23          1           0       -1.543862    0.876200   -1.566536
     24          6           0       -3.171600   -0.000185   -0.487952
     25          6           0       -3.851494   -1.198662   -0.256853
     26          6           0       -3.851389    1.198499   -0.257464
     27          6           0       -5.167702   -1.201590    0.193562
     28          1           0       -3.345488   -2.141017   -0.437646
     29          6           0       -5.167568    1.201788    0.192949
     30          1           0       -3.345243    2.140685   -0.438749
     31          6           0       -5.830854    0.000178    0.421168
     32          1           0       -5.677200   -2.142930    0.362079
     33          1           0       -5.677015    2.143237    0.361007
     34          1           0       -6.856792    0.000350    0.768568
 ---------------------------------------------------------------------

 SCF Done:  E(RCAM-B3LYP) =  -620.384125729     A.U. after   18 cycles

 Excitation energies and oscillator strengths:

 Excited State   1:      Singlet-A      5.4392 eV  227.94 nm  f=0.0029  <S**2>=0.000
      54 -> 61        -0.31457
      55 -> 58        -0.32978
      56 -> 60        -0.36695
      57 -> 59         0.39104
 This state for optimization and/or second-order correction.
 Total Energy, E(TD-HF/TD-DFT) =  -620.184237332
 Copying the excited state density for this state as the 1-particle RhoCI density.

 Excited State   2:      Singlet-A      5.4401 eV  227.91 nm  f=0.0000  <S**2>=0.000
      54 -> 58        -0.32895
      55 -> 61        -0.31499
      56 -> 59        -0.37028
      57 -> 60         0.38823

 Excited State   3:      Singlet-A      6.0909 eV  203.56 nm  f=0.0997  <S**2>=0.000
      54 -> 60         0.28707
      55 -> 59         0.29112
      56 -> 61        -0.36736
      57 -> 58         0.43781

 Excited State   4:      Singlet-A      6.1242 eV  202.45 nm  f=0.0000  <S**2>=0.000
      54 -> 59         0.31756
      55 -> 60         0.31537
      56 -> 58        -0.37915
      57 -> 61         0.38646

 Excited State   5:      Singlet-A      7.0936 eV  174.78 nm  f=0.0000  <S**2>=0.000
      54 -> 59         0.38126
      55 -> 60         0.37510
      56 -> 58         0.29712
      57 -> 61        -0.33088

 The electronic state is 1-A.
 Alpha  occ. eigenvalues --  -10.25543 -10.25542 -10.24796 -10.24796 -10.24790
 Alpha  occ. eigenvalues --  -10.24790 -10.24618 -10.24618 -10.24582 -10.24582
 Alpha  occ. eigenvalues --  -10.24563 -10.24563 -10.24560 -10.24560 -10.24240
 Alpha  occ. eigenvalues --  -10.24219  -0.94632  -0.94495  -0.89392  -0.86390
 Alpha  occ. eigenvalues --   -0.82807  -0.82782  -0.82781  -0.78283  -0.72622
 Alpha  occ. eigenvalues --   -0.68322  -0.68295  -0.67440  -0.65431  -0.65185
 Alpha  occ. eigenvalues --   -0.58869  -0.58401  -0.55697  -0.53648  -0.52780
 Alpha  occ. eigenvalues --   -0.52636  -0.51360  -0.49827  -0.49043  -0.48972
 Alpha  occ. eigenvalues --   -0.48848  -0.46709  -0.46534  -0.45354  -0.42877
 Alpha  occ. eigenvalues --   -0.42868  -0.42317  -0.40748  -0.40731  -0.40401
 Alpha  occ. eigenvalues --   -0.39899  -0.39039  -0.38554  -0.31010  -0.30981
 Alpha  occ. eigenvalues --   -0.30315  -0.29689
 Alpha virt. eigenvalues --    0.03315   0.03350   0.03440   0.03778   0.06877
 Alpha virt. eigenvalues --    0.08808   0.09680   0.09953   0.10349   0.11599
 Alpha virt. eigenvalues --    0.11981   0.13277   0.13786   0.14292   0.14555

 Mulliken charges:
               1
     1  C   -0.148336
     2  C   -0.094311
     3  C   -0.172271
     4  C    0.100567
     5  C   -0.172302
     6  C   -0.094289
     7  H    0.126994
     8  H    0.124650
     9  H    0.125299
    10  H    0.125308
    11  H    0.124652
    12  C   -0.353459
    13  H    0.145468
    14  H    0.145444
    15  C   -0.233047
    16  H    0.124822
    17  H    0.124807
    18  C   -0.233036
    19  H    0.124813
    20  H    0.124814
    21  C   -0.353449
    22  H    0.145455
    23  H    0.145454
    24  C    0.100564
    25  C   -0.172281
    26  C   -0.172298
    27  C   -0.094302
    28  H    0.125302
    29  C   -0.094295
    30  H    0.125306
    31  C   -0.148336
    32  H    0.124651
    33  H    0.124652
    34  H    0.126994
 Sum of Mulliken charges =  -0.00000

 Dipole moment (field-independent basis, Debye):
    X=             -0.0000    Y=              0.0000    Z=              0.0000  Tot=              0.0000
 Quadrupole moment (field-independent basis, Debye-Ang):
   XX=            -96.1332   YY=            -89.2628   ZZ=           -103.6391
   XY=             -0.0004   XZ=             -4.3523   YZ=             -0.0012

 1\1\GINC-CX3-7-2\SP\RCAM-B3LYP TD-FC\TZVP\C16H18\RK820\02-Feb-2024\0\\
 # cam-b3lyp/tzvp td=(nstates=5) geom=check\\Time dependent DFT on DPB'
 s ground state to find first 5 excited states. Will be followed by Opt
  and Freq later.\\0,1\C,0,-3.2736189277,1.1210070599,-0.0381310748\C,0
 ,-2.2085507288,1.2787797932,-0.9193638376\C,0,-1.4216664431,2.42474363
 95,-0.8659789945\C,0,-1.6809924215,3.4342708341,0.0644132128\C,0,-2.75
 21698106,3.2605006885,0.9444447576\C,0,-3.5424978107,2.1167216557,0.89
 57539822\H,0,-3.8855203691,0.2280280115,-0.0755583332\H,0,-1.986681337

 Normal termination of Gaussian 16 at Fri Feb  2 23:34:19 2024.
