 Gaussian 16, Revision C.01,
 Gaussian 16:  ES64L-G16RevC.01  3-Jul-2019

 ----------------
 # B3LYP/TZVP Opt
 ----------------

 Ground state calculation for DPB molecule, later to be used for excite
 d state and FC-HT analysis.
 ----------------------------------------------------------------------
 Symbolic Z-matrix:
 Charge =  0 Multiplicity = 1

 SCF Done:  E(RB3LYP) =  -620.694380056     A.U. after   19 cycles
 SCF Done:  E(RB3LYP) =  -620.735477082     A.U. after   14 cycles
 SCF Done:  E(RB3LYP) =  -620.743220654     A.U. after   14 cycles
 SCF Done:  E(RB3LYP) =  -620.744038876     A.U. after   15 cycles
 SCF Done:  E(RB3LYP) =  -620.744388223     A.U. after   17 cycles
 SCF Done:  E(RB3LYP) =  -620.744439520     A.U. after   15 cycles
 SCF Done:  E(RB3LYP) =  -620.745039316     A.U. after   13 cycles
 SCF Done:  E(RB3LYP) =  -620.748142796     A.U. after   16 cycles
 SCF Done:  E(RB3LYP) =  -620.751026876     A.U. after   14 cycles
 SCF Done:  E(RB3LYP) =  -620.750657593     A.U. after   16 cycles
 SCF Done:  E(RB3LYP) =  -620.761809675     A.U. after   15 cycles
 SCF Done:  E(RB3LYP) =  -620.761881960     A.U. after   16 cycles
 SCF Done:  E(RB3LYP) =  -620.761961125     A.U. after   23 cycles
 SCF Done:  E(RB3LYP) =  -620.762070890     A.U. after   17 cycles
 SCF Done:  E(RB3LYP) =  -620.762190828     A.U. after   22 cycles
 SCF Done:  E(RB3LYP) =  -620.762201844     A.U. after   13 cycles
 SCF Done:  E(RB3LYP) =  -620.762216591     A.U. after   16 cycles
 SCF Done:  E(RB3LYP) =  -620.762218240     A.U. after   16 cycles
 SCF Done:  E(RB3LYP) =  -620.762218416     A.U. after    7 cycles
 SCF Done:  E(RB3LYP) =  -620.762218466     A.U. after    7 cycles
 Optimization completed.
    -- Stationary point found.

                         Standard orientation:
 ---------------------------------------------------------------------
 Center     Atomic      Atomic             Coordinates (Angstroms)
 Number     Number       Type             X           Y           Z
 ---------------------------------------------------------------------
      1          6           0        5.830871   -0.000199   -0.421125
      2          6           0        5.167842    1.201572   -0.193153
      3          6           0        3.851630    1.198644    0.257234
      4          6           0        3.171591    0.000166    0.487937
      5          6           0        3.851260   -1.198514    0.257094
      6          6           0        5.167452   -1.201803   -0.193292
      7          1           0        6.856822   -0.000364   -0.768487
      8          1           0        5.677448    2.142908   -0.361368
      9          1           0        3.345709    2.140991    0.438309
     10          1           0        3.345025   -2.140713    0.438069
     11          1           0        5.676793   -2.143262   -0.361620
     12          6           0        1.729866    0.000344    0.938454
     13          1           0        1.543798   -0.876186    1.566493
     14          1           0        1.543832    0.877326    1.565876
     15          6           0        0.729236   -0.000043   -0.230479
     16          1           0        0.916527   -0.875512   -0.861288
     17          1           0        0.916523    0.875005   -0.861866
     18          6           0       -0.729273    0.000115    0.230397
     19          1           0       -0.916531   -0.874902    0.861843
     20          1           0       -0.916536    0.875609    0.861185
     21          6           0       -1.729866   -0.000333   -0.938469
     22          1           0       -1.543816   -0.877295   -1.565917
     23          1           0       -1.543862    0.876200   -1.566536
     24          6           0       -3.171600   -0.000185   -0.487952
     25          6           0       -3.851494   -1.198662   -0.256853
     26          6           0       -3.851389    1.198499   -0.257464
     27          6           0       -5.167702   -1.201590    0.193562
     28          1           0       -3.345488   -2.141017   -0.437646
     29          6           0       -5.167568    1.201788    0.192949
     30          1           0       -3.345243    2.140685   -0.438749
     31          6           0       -5.830854    0.000178    0.421168
     32          1           0       -5.677200   -2.142930    0.362079
     33          1           0       -5.677015    2.143237    0.361007
     34          1           0       -6.856792    0.000350    0.768568
 ---------------------------------------------------------------------

 The electronic state is 1-A.
 Alpha  occ. eigenvalues --  -10.18262 -10.18262 -10.17532 -10.17532 -10.17526
 Alpha  occ. eigenvalues --  -10.17525 -10.17459 -10.17459 -10.17339 -10.17339
 Alpha  occ. eigenvalues --  -10.17319 -10.17319 -10.17315 -10.17315 -10.17099
 Alpha  occ. eigenvalues --  -10.17078  -0.86303  -0.86172  -0.81182  -0.78283
 Alpha  occ. eigenvalues --   -0.74843  -0.74818  -0.74817  -0.70478  -0.65012
 Alpha  occ. eigenvalues --   -0.60898  -0.60875  -0.60035  -0.58043  -0.57886
 Alpha  occ. eigenvalues --   -0.51751  -0.51327  -0.48697  -0.46811  -0.46029
 Alpha  occ. eigenvalues --   -0.45911  -0.44651  -0.43187  -0.42460  -0.42417
 Alpha  occ. eigenvalues --   -0.42309  -0.40276  -0.40007  -0.38829  -0.36403
 Alpha  occ. eigenvalues --   -0.36249  -0.36142  -0.34659  -0.34622  -0.34263
 Alpha  occ. eigenvalues --   -0.33862  -0.33058  -0.32582  -0.25694  -0.25668
 Alpha  occ. eigenvalues --   -0.25089  -0.24508
 Alpha virt. eigenvalues --   -0.01344  -0.01319  -0.01247  -0.00905   0.02961
 Alpha virt. eigenvalues --    0.04673   0.05637   0.05727   0.06243   0.07501
 Alpha virt. eigenvalues --    0.07905   0.09157   0.09566   0.10095   0.10484

 Mulliken charges:
               1
     1  C   -0.127277
     2  C   -0.080678
     3  C   -0.169654
     4  C    0.149723
     5  C   -0.169690
     6  C   -0.080657
     7  H    0.109808
     8  H    0.106723
     9  H    0.105234
    10  H    0.105241
    11  H    0.106725
    12  C   -0.324065
    13  H    0.132896
    14  H    0.132877
    15  C   -0.224228
    16  H    0.113515
    17  H    0.113501
    18  C   -0.224217
    19  H    0.113505
    20  H    0.113507
    21  C   -0.324052
    22  H    0.132885
    23  H    0.132883
    24  C    0.149720
    25  C   -0.169667
    26  C   -0.169683
    27  C   -0.080670
    28  H    0.105236
    29  C   -0.080663
    30  H    0.105240
    31  C   -0.127276
    32  H    0.106723
    33  H    0.106725
    34  H    0.109808
 Sum of Mulliken charges =  -0.00000

 Dipole moment (field-independent basis, Debye):
    X=             -0.0000    Y=              0.0000    Z=              0.0000  Tot=              0.0000
 Quadrupole moment (field-independent basis, Debye-Ang):
   XX=            -96.3103   YY=            -89.4245   ZZ=           -103.2986
   XY=             -0.0004   XZ=             -4.2033   YZ=             -0.0012

 Normal termination of Gaussian 16 at Fri Feb  2 16:59:13 2024.
