 Gaussian 16, Revision C.01,
 Gaussian 16:  ES64L-G16RevC.01  3-Jul-2019

 ----------------
 # B3LYP/TZVP Opt
 ----------------

 Ground state calculation for DPB molecule, later to be used for excite
 d state and FC-HT analysis.
 ----------------------------------------------------------------------
 Symbolic Z-matrix:
 Charge =  0 Multiplicity = 1

 SCF Done:  E(RB3LYP) =  -620.694380056     A.U. after   19 cycles
 SCF Done:  E(RB3LYP) =  -620.735477082     A.U. after   14 cycles
 SCF Done:  E(RB3LYP) =  -620.743220654     A.U. after   14 cycles
 SCF Done:  E(RB3LYP) =  -620.744038876     A.U. after   15 cycles
 SCF Done:  E(RB3LYP) =  -620.744388223     A.U. after   17 cycles
 SCF Done:  E(RB3LYP) =  -620.744439520     A.U. after   16 cycles
 SCF Done:  E(RB3LYP) =  -620.745039317     A.U. after   13 cycles
 SCF Done:  E(RB3LYP) =  -620.748142804     A.U. after   16 cycles
 SCF Done:  E(RB3LYP) =  -620.751026708     A.U. after   15 cycles
 SCF Done:  E(RB3LYP) =  -620.750657539     A.U. after   16 cycles
 SCF Done:  E(RB3LYP) =  -620.761672781     A.U. after   20 cycles
 SCF Done:  E(RB3LYP) =  -620.761785196     A.U. after   16 cycles
 SCF Done:  E(RB3LYP) =  -620.761987480     A.U. after   20 cycles
 SCF Done:  E(RB3LYP) =  -620.762144060     A.U. after   16 cycles
 SCF Done:  E(RB3LYP) =  -620.762209374     A.U. after   17 cycles
 SCF Done:  E(RB3LYP) =  -620.762217203     A.U. after   19 cycles
 SCF Done:  E(RB3LYP) =  -620.762218220     A.U. after   16 cycles
 SCF Done:  E(RB3LYP) =  -620.762218396     A.U. after    7 cycles
 SCF Done:  E(RB3LYP) =  -620.762218459     A.U. after    7 cycles
 SCF Done:  E(RB3LYP) =  -620.762218470     A.U. after    6 cycles
 Optimization completed.
    -- Stationary point found.

                         Standard orientation:
 ---------------------------------------------------------------------
 Center     Atomic      Atomic             Coordinates (Angstroms)
 Number     Number       Type             X           Y           Z
 ---------------------------------------------------------------------
      1          6           0        5.830863    0.000085   -0.421170
      2          6           0        5.167620    1.201746   -0.193181
      3          6           0        3.851430    1.198586    0.257236
      4          6           0        3.171604   -0.000020    0.487947
      5          6           0        3.851479   -1.198571    0.257108
      6          6           0        5.167671   -1.201628   -0.193312
      7          1           0        6.856800    0.000123   -0.768572
      8          1           0        5.677073    2.143163   -0.361406
      9          1           0        3.345340    2.140838    0.438340
     10          1           0        3.345431   -2.140865    0.438109
     11          1           0        5.677165   -2.143004   -0.361637
     12          6           0        1.729878   -0.000080    0.938486
     13          1           0        1.543877   -0.876863    1.566189
     14          1           0        1.543830    0.876643    1.566267
     15          6           0        0.729249   -0.000053   -0.230431
     16          1           0        0.916563   -0.875274   -0.861582
     17          1           0        0.916512    0.875230   -0.861508
     18          6           0       -0.729251   -0.000099    0.230428
     19          1           0       -0.916507   -0.875325    0.861585
     20          1           0       -0.916542    0.875176    0.861515
     21          6           0       -1.729870   -0.000164   -0.938463
     22          1           0       -1.543892   -0.876962   -1.566156
     23          1           0       -1.543828    0.876534   -1.566284
     24          6           0       -3.171601   -0.000064   -0.487934
     25          6           0       -3.851515   -1.198589   -0.257083
     26          6           0       -3.851396    1.198570   -0.257264
     27          6           0       -5.167713   -1.201598    0.193328
     28          1           0       -3.345496   -2.140902   -0.438062
     29          6           0       -5.167584    1.201777    0.193146
     30          1           0       -3.345273    2.140800   -0.438390
     31          6           0       -5.830865    0.000137    0.421162
     32          1           0       -5.677231   -2.142959    0.361664
     33          1           0       -5.677019    2.143207    0.361348
     34          1           0       -6.856804    0.000226    0.768557
 ---------------------------------------------------------------------

 The electronic state is 1-A.
 Alpha  occ. eigenvalues --  -10.18262 -10.18262 -10.17532 -10.17532 -10.17525
 Alpha  occ. eigenvalues --  -10.17525 -10.17459 -10.17459 -10.17339 -10.17339
 Alpha  occ. eigenvalues --  -10.17319 -10.17319 -10.17315 -10.17315 -10.17099
 Alpha  occ. eigenvalues --  -10.17078  -0.86303  -0.86172  -0.81182  -0.78283
 Alpha  occ. eigenvalues --   -0.74843  -0.74818  -0.74817  -0.70478  -0.65013
 Alpha  occ. eigenvalues --   -0.60898  -0.60875  -0.60035  -0.58043  -0.57886
 Alpha  occ. eigenvalues --   -0.51751  -0.51327  -0.48697  -0.46811  -0.46029
 Alpha  occ. eigenvalues --   -0.45911  -0.44651  -0.43187  -0.42460  -0.42417
 Alpha  occ. eigenvalues --   -0.42309  -0.40276  -0.40007  -0.38829  -0.36403
 Alpha  occ. eigenvalues --   -0.36249  -0.36142  -0.34659  -0.34622  -0.34263
 Alpha  occ. eigenvalues --   -0.33862  -0.33057  -0.32582  -0.25694  -0.25668
 Alpha  occ. eigenvalues --   -0.25089  -0.24508
 Alpha virt. eigenvalues --   -0.01344  -0.01319  -0.01247  -0.00905   0.02961
 Alpha virt. eigenvalues --    0.04673   0.05637   0.05727   0.06243   0.07501
 Alpha virt. eigenvalues --    0.07905   0.09157   0.09566   0.10095   0.10483

 Mulliken charges:
               1
     1  C   -0.127273
     2  C   -0.080672
     3  C   -0.169663
     4  C    0.149707
     5  C   -0.169666
     6  C   -0.080672
     7  H    0.109808
     8  H    0.106724
     9  H    0.105238
    10  H    0.105239
    11  H    0.106724
    12  C   -0.324062
    13  H    0.132888
    14  H    0.132884
    15  C   -0.224222
    16  H    0.113507
    17  H    0.113508
    18  C   -0.224219
    19  H    0.113506
    20  H    0.113508
    21  C   -0.324059
    22  H    0.132887
    23  H    0.132884
    24  C    0.149700
    25  C   -0.169661
    26  C   -0.169660
    27  C   -0.080674
    28  H    0.105239
    29  C   -0.080673
    30  H    0.105239
    31  C   -0.127272
    32  H    0.106724
    33  H    0.106724
    34  H    0.109808
 Sum of Mulliken charges =  -0.00000

 Dipole moment (field-independent basis, Debye):
    X=             -0.0000    Y=             -0.0000    Z=             -0.0000  Tot=              0.0000
 Quadrupole moment (field-independent basis, Debye-Ang):
   XX=            -96.3103   YY=            -89.4246   ZZ=           -103.2983
   XY=             -0.0000   XZ=             -4.2031   YZ=             -0.0001

 Normal termination of Gaussian 16 at Thu Feb  1 16:42:43 2024.
