 Gaussian 16, Revision C.01,

 ----------------------------------------------
 #p CAM-B3LYP/6-31G* geom=connectivity opt freq
 ----------------------------------------------

 Investigation of Azulene step 1: ground state optimization and frequen
 cy calculation.
 ----------------------------------------------------------------------
 Symbolic Z-matrix:
 Charge =  0 Multiplicity = 1

 SCF Done:  E(RCAM-B3LYP) =  -385.593067123     A.U. after   17 cycles
 SCF Done:  E(RCAM-B3LYP) =  -385.596907239     A.U. after   15 cycles
 SCF Done:  E(RCAM-B3LYP) =  -385.597531306     A.U. after   12 cycles
 SCF Done:  E(RCAM-B3LYP) =  -385.598026345     A.U. after   15 cycles
 SCF Done:  E(RCAM-B3LYP) =  -385.598055814     A.U. after   11 cycles
 SCF Done:  E(RCAM-B3LYP) =  -385.598058786     A.U. after   10 cycles
 SCF Done:  E(RCAM-B3LYP) =  -385.598059054     A.U. after   10 cycles
 Optimization completed.
    -- Stationary point found.

 1\1\GINC-CX3-12-2\FOpt\RCAM-B3LYP\6-31G(d)\C10H8\RK820\18-Mar-2024\0\\
 #p CAM-B3LYP/6-31G* geom=connectivity opt freq\\Investigation of Azule
 ne step 1: ground state optimization and frequency calculation.\\0,1\C
 ,-1.5982117253,0.6439156007,-0.020461063\C,-0.2057096637,0.6394794406,
 -0.0210884775\C,0.6662824839,1.7239889311,-0.0210639161\C,-2.487970343
 9,1.7149776707,-0.0196735064\C,0.3751369656,3.0802926763,-0.0204163326
 \C,-2.2066462575,3.0779105955,-0.019314653\C,-0.9753566697,3.716766521
 6,-0.0196172159\H,-2.0620137899,-0.3401733669,-0.0206111578\H,0.262074

 Normal termination of Gaussian 16 at Mon Mar 18 23:22:23 2024.

 ----------------------------------------------------------------------
 #P Geom=AllCheck Guess=TCheck SCRF=Check GenChk RCAM-B3LYP/6-31G(d) Fr
 eq
 ----------------------------------------------------------------------

 ----------------------------------------------------------------------
 Investigation of Azulene step 1: ground state optimization and frequen
 cy calculation.
 ----------------------------------------------------------------------
 Charge =  0 Multiplicity = 1

 SCF Done:  E(RCAM-B3LYP) =  -385.598059054     A.U. after    1 cycles
 Optimization completed.

 1\1\GINC-CX3-12-2\Freq\RCAM-B3LYP\6-31G(d)\C10H8\RK820\18-Mar-2024\0\\
 #P Geom=AllCheck Guess=TCheck SCRF=Check GenChk RCAM-B3LYP/6-31G(d) Fr
 eq\\Investigation of Azulene step 1: ground state optimization and fre
 quency calculation.\\0,1\C,-1.5982117253,0.6439156007,-0.020461063\C,-
 0.2057096637,0.6394794406,-0.0210884775\C,0.6662824839,1.7239889311,-0
 .0210639161\C,-2.4879703439,1.7149776707,-0.0196735064\C,0.3751369656,
 3.0802926763,-0.0204163326\C,-2.2066462575,3.0779105955,-0.019314653\C
 ,-0.9753566697,3.7167665216,-0.0196172159\H,-2.0620137899,-0.340173366

 Normal termination of Gaussian 16 at Mon Mar 18 23:22:49 2024.

 ----------------------------------------------------------------------
 #p CAM-B3LYP/6-31G* TD=(nstates=2, Root=1) geom=check density=current
 opt freq=savenormalmodes
 ----------------------------------------------------------------------

 Azulene vertical excitation and optimization, frequency calculation fo
 r investigation of the S1 PES.
 ----------------------------------------------------------------------
 Structure from the checkpoint file:  "Azulene_6-31Gs_1-2.chk"
 Charge =  0 Multiplicity = 1

 SCF Done:  E(RCAM-B3LYP) =  -385.598059054     A.U. after   15 cycles
 Total Energy, E(TD-HF/TD-DFT) =  -385.507745983
 SCF Done:  E(RCAM-B3LYP) =  -385.588302446     A.U. after   15 cycles
 Total Energy, E(TD-HF/TD-DFT) =  -385.519304260
 SCF Done:  E(RCAM-B3LYP) =  -385.583570124     A.U. after   12 cycles
 Total Energy, E(TD-HF/TD-DFT) =  -385.520511109
 SCF Done:  E(RCAM-B3LYP) =  -385.583952005     A.U. after   10 cycles
 Total Energy, E(TD-HF/TD-DFT) =  -385.520572119
 SCF Done:  E(RCAM-B3LYP) =  -385.583879654     A.U. after    9 cycles
 Total Energy, E(TD-HF/TD-DFT) =  -385.520575946
    -- Stationary point found.
 Normal termination of Gaussian 16 at Mon Mar 18 23:24:54 2024.

 ----------------------------------------------------------------------
 #P Geom=AllCheck Guess=TCheck SCRF=Check GenChk RCAM-B3LYP TD(FC,Read)
 /6-31G(d) Freq
 ----------------------------------------------------------------------

 ----------------------------------------------------------------------
 Azulene vertical excitation and optimization, frequency calculation fo
 r investigation of the S1 PES.
 ----------------------------------------------------------------------
 Charge =  0 Multiplicity = 1

 SCF Done:  E(RCAM-B3LYP) =  -385.583879654     A.U. after    1 cycles

 Excitation energies and oscillator strengths:

 Excited State   1:      Singlet-A      1.7226 eV  719.76 nm  f=0.0036  <S**2>=0.000
      34 -> 35         0.70558
 This state for optimization and/or second-order correction.
 Total Energy, E(TD-HF/TD-DFT) =  -385.520575914
 Copying the excited state density for this state as the 1-particle RhoCI density.

 Excited State   2:      Singlet-A      3.5996 eV  344.44 nm  f=0.0022  <S**2>=0.000
      33 -> 35         0.48498
      34 -> 36         0.51306

 The electronic state is 1-A.
 Alpha  occ. eigenvalues --  -10.29195 -10.29098 -10.29097 -10.27233 -10.27232
 Alpha  occ. eigenvalues --  -10.26365 -10.26312 -10.24780 -10.23479 -10.23476
 Alpha  occ. eigenvalues --   -0.95284  -0.90424  -0.86581  -0.81429  -0.76437
 Alpha  occ. eigenvalues --   -0.73284  -0.68205  -0.62013  -0.61444  -0.57861
 Alpha  occ. eigenvalues --   -0.56410  -0.52264  -0.52131  -0.46111  -0.45791
 Alpha  occ. eigenvalues --   -0.45366  -0.44290  -0.42133  -0.40493  -0.39992
 Alpha  occ. eigenvalues --   -0.39107  -0.35400  -0.27925  -0.22318
 Alpha virt. eigenvalues --   -0.03902   0.01083   0.12711   0.14769   0.16626
 Alpha virt. eigenvalues --    0.18209   0.18518   0.20466   0.22063   0.22064
 Alpha virt. eigenvalues --    0.22915   0.24888   0.26054   0.29781   0.32166

 Mulliken charges:
               1
     1  C   -0.171743
     2  C   -0.105536
     3  C   -0.202398
     4  C   -0.105537
     5  C    0.082862
     6  C   -0.202398
     7  C    0.082860
     8  H    0.128067
     9  H    0.135342
    10  H    0.127943
    11  H    0.135342
    12  H    0.127943
    13  C   -0.158437
    14  H    0.151957
    15  C   -0.160070
    16  H    0.140283
    17  C   -0.158437
    18  H    0.151957
 Sum of Mulliken charges =  -0.00000

 Dipole moment (field-independent basis, Debye):
    X=             -0.5573    Y=             -0.0000    Z=             -0.0000  Tot=              0.5573
 Quadrupole moment (field-independent basis, Debye-Ang):
   XX=            -51.0841   YY=            -50.3768   ZZ=            -62.5362
   XY=             -0.0000   XZ=              0.0000   YZ=             -0.0000

  Exact polarizability:     153.186       0.000     112.531       0.000      -0.000      32.934
 Approx polarizability:     257.129       0.000     159.029      -0.000      -0.000      45.214

 Optimization completed.
    -- Stationary point found.
 Normal termination of Gaussian 16 at Mon Mar 18 23:25:36 2024.

 --------------------------------------------------------
 FC analysis for simulated absorption spectra for Azulene
 --------------------------------------------------------
 Structure from the checkpoint file:  "Azulene_6-31Gs_1-1.chk"
 Charge =  0 Multiplicity = 1

 Normal termination of Gaussian 16 at Mon Mar 18 23:26:37 2024.
 Gaussian 16:  ES64L-G16RevC.01  3-Jul-2019

 ------------------------------------------------------
 FC analysis for simulated emission spectra for Azulene
 ------------------------------------------------------
 Structure from the checkpoint file:  "Azulene_6-31Gs_1-1.chk"
 Charge =  0 Multiplicity = 1

                         Standard orientation:
 ---------------------------------------------------------------------
 Center     Atomic      Atomic             Coordinates (Angstroms)
 Number     Number       Type             X           Y           Z
 ---------------------------------------------------------------------
      1          6           0       -2.492583    0.000107    0.000017
      2          6           0       -1.903048   -1.261452    0.000015
      3          6           0       -0.550309   -1.587995    0.000017
      4          6           0       -1.902949    1.261525   -0.000003
      5          6           0        0.552513   -0.746503    0.000017
      6          6           0       -0.550116    1.587982   -0.000037
      7          6           0        0.552630    0.746458   -0.000031
      8          1           0       -3.580491    0.000201    0.000034
      9          1           0       -2.590858   -2.102658    0.000004
     10          1           0       -0.321127   -2.652535   -0.000011
     11          1           0       -2.590713    2.102771    0.000015
     12          1           0       -0.320833    2.652509   -0.000047
     13          6           0        1.894102   -1.145583   -0.000071
     14          1           0        2.239633   -2.171737   -0.000140
     15          6           0        2.696131   -0.000052    0.000066
     16          1           0        3.780322   -0.000227    0.000095
     17          6           0        1.894342    1.145510    0.000013
     18          1           0        2.239783    2.171692    0.000027
 ---------------------------------------------------------------------

                      1                      2                      3
                      A                      A                      A
 Frequencies --     77.9388               167.3087               174.4680
 Red. masses --      4.6284                 3.8623                 3.8115
 Frc consts  --      0.0166                 0.0637                 0.0684
 IR Inten    --      0.2084                 0.0000                 1.0334

                      4                      5                      6
                      A                      A                      A
 Frequencies --    324.8619               342.2066               438.5864
 Red. masses --      3.1189                 4.3764                 3.1347
 Frc consts  --      0.1939                 0.3020                 0.3553
 IR Inten    --      6.7530                 0.8321                 0.0000

                      7                      8                      9
                      A                      A                      A
 Frequencies --    481.9179               587.8803               623.3890
 Red. masses --      5.8373                 2.5477                 3.2815
 Frc consts  --      0.7987                 0.5188                 0.7514
 IR Inten    --      3.0533                 5.7449                 1.8701

                     10                     11                     12
                      A                      A                      A
 Frequencies --    683.8247               713.0746               740.9466
 Red. masses --      5.3904                 5.9362                 2.5964
 Frc consts  --      1.4851                 1.7784                 0.8398
 IR Inten    --      1.0037                 2.8200                 0.0000

                     13                     14                     15
                      A                      A                      A
 Frequencies --    759.5460               802.0362               811.2985
 Red. masses --      1.1688                 1.2943                 4.9508
 Frc consts  --      0.3973                 0.4905                 1.9199
 IR Inten    --      2.3638                95.1485                 4.9643

                     16                     17                     18
                      A                      A                      A
 Frequencies --    818.4131               903.1065               922.2533
 Red. masses --      1.4287                 1.4909                 5.8066
 Frc consts  --      0.5638                 0.7164                 2.9099
 IR Inten    --      0.0001                 0.0000                 3.6944

                     19                     20                     21
                      A                      A                      A
 Frequencies --    965.4669               978.4207               983.2413
 Red. masses --      1.3670                 2.8096                 2.9279
 Frc consts  --      0.7507                 1.5847                 1.6677
 IR Inten    --      0.0231                11.1720                 5.6656

                     22                     23                     24
                      A                      A                      A
 Frequencies --   1004.6659              1023.7830              1035.4765
 Red. masses --      1.3942                 1.3797                 1.3090
 Frc consts  --      0.8291                 0.8520                 0.8269
 IR Inten    --      5.5837                 0.0000                 0.0205

                     25                     26                     27
                      A                      A                      A
 Frequencies --   1086.0637              1096.7616              1187.9439
 Red. masses --      1.6108                 1.5086                 1.6880
 Frc consts  --      1.1195                 1.0692                 1.4035
 IR Inten    --      0.5410                 7.8098                 0.9342

                     28                     29                     30
                      A                      A                      A
 Frequencies --   1239.9149              1254.1027              1336.1669
 Red. masses --      1.4088                 1.3680                 2.7402
 Frc consts  --      1.2761                 1.2676                 2.8824
 IR Inten    --      1.7209                 2.2684                 0.5398

                     31                     32                     33
                      A                      A                      A
 Frequencies --   1337.8172              1348.3621              1459.6703
 Red. masses --      1.2387                 1.5878                 1.9336
 Frc consts  --      1.3062                 1.7009                 2.4273
 IR Inten    --      0.1927                 5.5562                 1.2813

                     34                     35                     36
                      A                      A                      A
 Frequencies --   1464.1128              1524.4917              1531.6576
 Red. masses --      2.4332                 2.0368                 2.7421
 Frc consts  --      3.0731                 2.7890                 3.7901
 IR Inten    --     99.4225                 8.7275                33.9330

                     37                     38                     39
                      A                      A                      A
 Frequencies --   1576.9302              1629.6386              1693.8443
 Red. masses --      5.8294                 3.4096                 5.9131
 Frc consts  --      8.5408                 5.3351                 9.9957
 IR Inten    --      9.4603                 6.4081                45.4992

                     40                     41                     42
                      A                      A                      A
 Frequencies --   1695.8568              3177.7908              3181.0542
 Red. masses --      5.8029                 1.1036                 1.0876
 Frc consts  --      9.8328                 6.5663                 6.4844
 IR Inten    --     32.9888                 3.6304                 6.3647

                     43                     44                     45
                      A                      A                      A
 Frequencies --   3184.4639              3207.8735              3217.0054
 Red. masses --      1.0967                 1.0933                 1.0936
 Frc consts  --      6.5527                 6.6289                 6.6683
 IR Inten    --      8.3879                31.8144                23.8437

                     46                     47                     48
                      A                      A                      A
 Frequencies --   3239.3836              3260.9914              3270.0368
 Red. masses --      1.1001                 1.0956                 1.1022
 Frc consts  --      6.8018                 6.8644                 6.9439
 IR Inten    --      7.7333                12.2780                12.3018

 - Thermochemistry -
 -------------------
 Temperature   298.150 Kelvin.  Pressure   1.00000 Atm.
 Atom     1 has atomic number  6 and mass  12.00000

 Molecular mass:   128.06260 amu.
 Principal axes and moments of inertia in atomic units:
                           1         2         3
     Eigenvalues --   629.157471430.451712059.60918
           X            1.00000  -0.00000  -0.00000
           Y            0.00000   1.00000   0.00000
           Z            0.00000  -0.00000   1.00000
 This molecule is an asymmetric top.
 Rotational symmetry number  1.
 Warning -- assumption of classical behavior for rotation
           may cause significant error
 Rotational temperatures (Kelvin)      0.13767     0.06055     0.04205
 Rotational constants (GHZ):           2.86850     1.26166     0.87625
 Zero-point vibrational energy     386190.7 (Joules/Mol)
                                   92.30180 (Kcal/Mol)
 Warning -- explicit consideration of   8 degrees of freedom as
           vibrations may cause significant error
 Vibrational temperatures:    112.14   240.72   251.02   467.40   492.36
          (Kelvin)            631.03   693.37   845.83   896.92   983.87
                             1025.96  1066.06  1092.82  1153.95  1167.28
                             1177.51  1299.37  1326.92  1389.09  1407.73
                             1414.66  1445.49  1473.00  1489.82  1562.60
                             1578.00  1709.19  1783.96  1804.37  1922.45
                             1924.82  1939.99  2100.14  2106.53  2193.40
                             2203.71  2268.85  2344.69  2437.06  2439.96
                             4572.13  4576.83  4581.73  4615.41  4628.55
                             4660.75  4691.84  4704.85

 Zero-point correction=                           0.147092 (Hartree/Particle)
 Thermal correction to Energy=                    0.154628
 Thermal correction to Enthalpy=                  0.155572
 Thermal correction to Gibbs Free Energy=         0.114665
 Sum of electronic and zero-point Energies=           -385.450967
 Sum of electronic and thermal Energies=              -385.443431
 Sum of electronic and thermal Enthalpies=            -385.442487
 Sum of electronic and thermal Free Energies=         -385.483394

                     E (Thermal)             CV                S
                      KCal/Mol        Cal/Mol-Kelvin    Cal/Mol-Kelvin
 Total                   97.030             29.912             86.097
 Electronic               0.000              0.000              0.000
 Translational            0.889              2.981             40.455
 Rotational               0.889              2.981             29.007
 Vibrational             95.253             23.950             16.634
 Vibration     1          0.599              1.964              3.942
 Vibration     2          0.624              1.883              2.466
 Vibration     3          0.627              1.874              2.387
 Vibration     4          0.709              1.626              1.286
 Vibration     5          0.721              1.591              1.202
 Vibration     6          0.799              1.386              0.831
 Vibration     7          0.838              1.290              0.705
 Vibration     8          0.945              1.058              0.471

 Normal termination of Gaussian 16 at Mon Mar 18 23:27:33 2024.
