 Gaussian 16, Revision C.01,

 --------------------------------------------
 #p CAM-B3LYP/TZVP geom=connectivity opt freq
 --------------------------------------------

 Investigation of Azulene step 1: ground state optimization and frequen
 cy calculation.
 ----------------------------------------------------------------------
 Symbolic Z-matrix:
 Charge =  0 Multiplicity = 1

 SCF Done:  E(RCAM-B3LYP) =  -385.718197356     A.U. after   17 cycles
 SCF Done:  E(RCAM-B3LYP) =  -385.722591656     A.U. after   16 cycles
 SCF Done:  E(RCAM-B3LYP) =  -385.723173138     A.U. after   12 cycles
 SCF Done:  E(RCAM-B3LYP) =  -385.723697033     A.U. after   15 cycles
 SCF Done:  E(RCAM-B3LYP) =  -385.723734147     A.U. after   11 cycles
 SCF Done:  E(RCAM-B3LYP) =  -385.723739025     A.U. after   11 cycles
 Optimization completed.
    -- Stationary point found.
 Normal termination of Gaussian 16 at Mon Mar 11 15:05:13 2024.

 --------------------------------------------------------------------
 #P Geom=AllCheck Guess=TCheck SCRF=Check GenChk RCAM-B3LYP/TZVP Freq
 --------------------------------------------------------------------

 ----------------------------------------------------------------------
 Investigation of Azulene step 1: ground state optimization and frequen
 cy calculation.
 ----------------------------------------------------------------------
 Charge =  0 Multiplicity = 1

 SCF Done:  E(RCAM-B3LYP) =  -385.723739025     A.U. after    1 cycles
 Optimization completed.
 Normal termination of Gaussian 16 at Mon Mar 11 15:06:04 2024.

 ----------------------------------------------------------------------
 #p CAM-B3LYP/TZVP TD=(nstates=3, Root=2) geom=check density=current op
 t freq=savenormalmodes
 ----------------------------------------------------------------------

 Azulene vertical excitation and optimization, frequency calculation fo
 r investigation of the S1 PES.
 ----------------------------------------------------------------------
 Structure from the checkpoint file:  "Azulene3-2.chk"
 Charge =  0 Multiplicity = 1

 SCF Done:  E(RCAM-B3LYP) =  -385.723739025     A.U. after   15 cycles
 Total Energy, E(TD-HF/TD-DFT) =  -385.584044022
 SCF Done:  E(RCAM-B3LYP) =  -385.721881587     A.U. after   14 cycles
 Total Energy, E(TD-HF/TD-DFT) =  -385.585985818
 SCF Done:  E(RCAM-B3LYP) =  -385.721636430     A.U. after   11 cycles
 Total Energy, E(TD-HF/TD-DFT) =  -385.586143282
 SCF Done:  E(RCAM-B3LYP) =  -385.721560005     A.U. after    9 cycles
 Total Energy, E(TD-HF/TD-DFT) =  -385.586153883
    -- Stationary point found.
 Normal termination of Gaussian 16 at Mon Mar 11 15:10:19 2024.

 ----------------------------------------------------------------------
 #P Geom=AllCheck Guess=TCheck SCRF=Check GenChk RCAM-B3LYP TD(FC,Read)
 /TZVP Freq
 ----------------------------------------------------------------------

 ----------------------------------------------------------------------
 Azulene vertical excitation and optimization, frequency calculation fo
 r investigation of the S1 PES.
 ----------------------------------------------------------------------
 Charge =  0 Multiplicity = 1

                         Standard orientation:
 ---------------------------------------------------------------------
 Center     Atomic      Atomic             Coordinates (Angstroms)
 Number     Number       Type             X           Y           Z
 ---------------------------------------------------------------------
      1          6           0        2.498980    0.000002   -0.000028
      2          6           0        1.910754   -1.267686    0.000004
      3          6           0        0.552254   -1.598084    0.000016
      4          6           0        1.910753    1.267693   -0.000023
      5          6           0       -0.545188   -0.731155   -0.000004
      6          6           0        0.552251    1.598079    0.000011
      7          6           0       -0.545183    0.731144    0.000010
      8          1           0        3.583436    0.000002   -0.000042
      9          1           0        2.598873   -2.104078    0.000022
     10          1           0        0.315628   -2.656092    0.000048
     11          1           0        2.598868    2.104087   -0.000035
     12          1           0        0.315618    2.656085    0.000043
     13          6           0       -1.903064   -1.143198    0.000045
     14          1           0       -2.244292   -2.166675    0.000061
     15          6           0       -2.716403    0.000007   -0.000115
     16          1           0       -3.796374   -0.000004   -0.000157
     17          6           0       -1.903069    1.143197    0.000074
     18          1           0       -2.244273    2.166683    0.000121
 ---------------------------------------------------------------------

 SCF Done:  E(RCAM-B3LYP) =  -385.721560005     A.U. after    1 cycles

 Excitation energies and oscillator strengths:

 Excited State   1:      Singlet-A      2.2105 eV  560.88 nm  f=0.0066  <S**2>=0.000
      33 -> 36        -0.10129
      34 -> 35         0.70062

 Excited State   2:      Singlet-A      3.6846 eV  336.49 nm  f=0.0057  <S**2>=0.000
      33 -> 35         0.47399
      34 -> 36         0.52306
 This state for optimization and/or second-order correction.
 Total Energy, E(TD-HF/TD-DFT) =  -385.586153882
 Copying the excited state density for this state as the 1-particle RhoCI density.

 Excited State   3:      Singlet-A      4.7710 eV  259.87 nm  f=0.0608  <S**2>=0.000
      32 -> 35         0.25301
      33 -> 36         0.64880

 The electronic state is 1-A.
 Alpha  occ. eigenvalues --  -10.27752 -10.27750 -10.27456 -10.26222 -10.26220
 Alpha  occ. eigenvalues --  -10.26025 -10.25994 -10.24453 -10.23234 -10.23230
 Alpha  occ. eigenvalues --   -0.96404  -0.91268  -0.87515  -0.82358  -0.78472
 Alpha  occ. eigenvalues --   -0.73252  -0.69763  -0.63069  -0.62511  -0.59143
 Alpha  occ. eigenvalues --   -0.57141  -0.53069  -0.52785  -0.47661  -0.46486
 Alpha  occ. eigenvalues --   -0.46476  -0.44755  -0.44132  -0.42652  -0.40431
 Alpha  occ. eigenvalues --   -0.40145  -0.36682  -0.28857  -0.24455
 Alpha virt. eigenvalues --   -0.04447  -0.00970   0.07883   0.10046   0.11341
 Alpha virt. eigenvalues --    0.11597   0.12802   0.13450   0.14913   0.15428
 Alpha virt. eigenvalues --    0.17003   0.17014   0.17612   0.18414   0.21023

 Mulliken charges:
               1
     1  C   -0.044401
     2  C   -0.191953
     3  C   -0.018395
     4  C   -0.191953
     5  C   -0.094613
     6  C   -0.018387
     7  C   -0.094613
     8  H    0.128288
     9  H    0.121851
    10  H    0.122459
    11  H    0.121851
    12  H    0.122460
    13  C   -0.134062
    14  H    0.129438
    15  C   -0.092315
    16  H    0.138973
    17  C   -0.134066
    18  H    0.129437
 Sum of Mulliken charges =  -0.00000

 Dipole moment (field-independent basis, Debye):
    X=             -0.6816    Y=              0.0000    Z=              0.0000  Tot=              0.6816
 Quadrupole moment (field-independent basis, Debye-Ang):
   XX=            -51.3801   YY=            -52.7454   ZZ=            -65.2774
   XY=              0.0001   XZ=              0.0002   YZ=              0.0000

  Exact polarizability:     191.098       0.000     132.461       0.000       0.000      58.700
 Approx polarizability:     264.611       0.001     169.784       0.000       0.000      76.575

 Optimization completed.
    -- Stationary point found.
 Normal termination of Gaussian 16 at Mon Mar 11 15:12:59 2024.

 ----------------------------------------------------------------------
 #p CAM-B3LYP/TZVP Freq(ReadFC, FC, ReadFCHT) NoSymm geom=check guess=r
 ead
 ----------------------------------------------------------------------

 --------------------------------------------------------
 FC analysis for simulated absorption spectra for Azulene
 --------------------------------------------------------
 Structure from the checkpoint file:  "Azulene3-1.chk"
 Charge =  0 Multiplicity = 1

 Normal termination of Gaussian 16 at Mon Mar 11 15:13:16 2024.
 Gaussian 16:  ES64L-G16RevC.01  3-Jul-2019

 ----------------------------------------------------------------------
 #p CAM-B3LYP/TZVP Freq(ReadFC, FC, ReadFCHT, Emission) NoSymm geom=che
 ck guess=read
 ----------------------------------------------------------------------

 ------------------------------------------------------
 FC analysis for simulated emission spectra for Azulene
 ------------------------------------------------------
 Structure from the checkpoint file:  "Azulene3-1.chk"
 Charge =  0 Multiplicity = 1

                      1                      2                      3
                      A                      A                      A
 Frequencies --    159.5694               172.1367               317.4022
 Red. masses --      3.8789                 3.8297                 3.1283
 Frc consts  --      0.0582                 0.0669                 0.1857
 IR Inten    --      0.0000                 2.0047                10.1175

                      4                      5                      6
                      A                      A                      A
 Frequencies --    343.5255               417.2965               432.4976
 Red. masses --      4.3907                 6.9400                 3.1294
 Frc consts  --      0.3053                 0.7120                 0.3449
 IR Inten    --      0.8492                 1.8656                 0.0000

                      7                      8                      9
                      A                      A                      A
 Frequencies --    494.0673               576.5878               613.4802
 Red. masses --      5.8393                 2.6909                 3.2094
 Frc consts  --      0.8398                 0.5271                 0.7117
 IR Inten    --      3.9019                 8.3390                 0.0011

                     10                     11                     12
                      A                      A                      A
 Frequencies --    693.5559               704.0941               708.7361
 Red. masses --      5.1110                 5.9778                 3.5886
 Frc consts  --      1.4485                 1.7460                 1.0621
 IR Inten    --      1.3370                 2.7733                 0.0000

                     13                     14                     15
                      A                      A                      A
 Frequencies --    752.2542               792.7534               812.1711
 Red. masses --      1.1648                 1.2918                 1.3420
 Frc consts  --      0.3884                 0.4783                 0.5215
 IR Inten    --      4.3204               133.0486                 0.0000

                     16                     17                     18
                      A                      A                      A
 Frequencies --    846.6823               892.0669               929.3319
 Red. masses --      5.1746                 1.3878                 5.6875
 Frc consts  --      2.1856                 0.6507                 2.8941
 IR Inten    --      8.8570                 0.0000                 2.9375

                     19                     20                     21
                      A                      A                      A
 Frequencies --    967.4854               969.2765               980.7542
 Red. masses --      2.8594                 1.3829                 3.0046
 Frc consts  --      1.5769                 0.7655                 1.7028
 IR Inten    --     15.9903                 0.1053                 3.1584

                     22                     23                     24
                      A                      A                      A
 Frequencies --    995.5640              1015.5379              1023.9997
 Red. masses --      1.3899                 1.3571                 1.2790
 Frc consts  --      0.8116                 0.8246                 0.7902
 IR Inten    --      5.7348                 0.0000                 0.0363

                     25                     26                     27
                      A                      A                      A
 Frequencies --   1081.7455              1096.9604              1188.2035
 Red. masses --      1.6010                 1.4837                 1.7028
 Frc consts  --      1.1038                 1.0519                 1.4165
 IR Inten    --      1.2318                 8.9138                 0.3972

                     28                     29                     30
                      A                      A                      A
 Frequencies --   1242.5055              1262.5911              1322.9413
 Red. masses --      1.4289                 1.2796                 2.8625
 Frc consts  --      1.2997                 1.2019                 2.9517
 IR Inten    --      5.4032                 0.6174                 3.1060

                     31                     32                     33
                      A                      A                      A
 Frequencies --   1334.8925              1341.4591              1447.0051
 Red. masses --      1.2299                 1.6318                 1.9657
 Frc consts  --      1.2913                 1.7301                 2.4250
 IR Inten    --      0.3055                 5.5957                 0.3400

                     34                     35                     36
                      A                      A                      A
 Frequencies --   1447.7038              1511.8784              1514.0042
 Red. masses --      2.4553                 1.9199                 2.7001
 Frc consts  --      3.0319                 2.5856                 3.6465
 IR Inten    --    121.2166                10.8854                28.0853

                     37                     38                     39
                      A                      A                      A
 Frequencies --   1554.7527              1612.4070              1675.1628
 Red. masses --      5.7353                 3.3461                 7.7914
 Frc consts  --      8.1682                 5.1255                12.8819
 IR Inten    --      9.2094                 5.4325                80.8684

                     40                     41                     42
                      A                      A                      A
 Frequencies --   1676.7762              3160.7350              3162.6475
 Red. masses --      4.8227                 1.0851                 1.0872
 Frc consts  --      7.9890                 6.3871                 6.4073
 IR Inten    --      6.5174                 0.0722                 9.4882

                     43                     44                     45
                      A                      A                      A
 Frequencies --   3170.3746              3189.1496              3197.4553
 Red. masses --      1.0884                 1.0910                 1.0934
 Frc consts  --      6.4456                 6.5380                 6.5863
 IR Inten    --      5.1246                22.2395                14.6096

                     46                     47                     48
                      A                      A                      A
 Frequencies --   3225.6934              3242.8108              3251.3102
 Red. masses --      1.0893                 1.0945                 1.1028
 Frc consts  --      6.6781                 6.7809                 6.8684
 IR Inten    --      5.5225                 7.6189                 5.4872

 - Thermochemistry -
 -------------------
 Temperature   298.150 Kelvin.  Pressure   1.00000 Atm.
 Atom     1 has atomic number  6 and mass  12.00000

 Molecular mass:   128.06260 amu.
 Principal axes and moments of inertia in atomic units:
                           1         2         3
     Eigenvalues --   625.752891422.508642048.26149
           X            0.42623   0.90461   0.00047
           Y            0.90461  -0.42623  -0.00039
           Z            0.00015  -0.00060   1.00000
 This molecule is an asymmetric top.
 Rotational symmetry number  1.
 Warning -- assumption of classical behavior for rotation
           may cause significant error
 Rotational temperatures (Kelvin)      0.13842     0.06089     0.04229
 Rotational constants (GHZ):           2.88411     1.26870     0.88111
 Zero-point vibrational energy     385927.2 (Joules/Mol)
                                   92.23882 (Kcal/Mol)
 Warning -- explicit consideration of   9 degrees of freedom as
           vibrations may cause significant error
 Vibrational temperatures:    229.58   247.67   456.67   494.26   600.40
          (Kelvin)            622.27   710.85   829.58   882.66   997.87
                             1013.03  1019.71  1082.33  1140.60  1168.53
                             1218.19  1283.49  1337.10  1392.00  1394.57
                             1411.09  1432.39  1461.13  1473.31  1556.39
                             1578.28  1709.56  1787.69  1816.59  1903.42
                             1920.61  1930.06  2081.92  2082.92  2175.26
                             2178.31  2236.94  2319.89  2410.19  2412.51
                             4547.59  4550.34  4561.46  4588.48  4600.43
                             4641.05  4665.68  4677.91

 Zero-point correction=                           0.146992 (Hartree/Particle)
 Thermal correction to Energy=                    0.154093
 Thermal correction to Enthalpy=                  0.155037
 Thermal correction to Gibbs Free Energy=         0.115477
 Sum of electronic and zero-point Energies=           -385.576747
 Sum of electronic and thermal Energies=              -385.569646
 Sum of electronic and thermal Enthalpies=            -385.568702
 Sum of electronic and thermal Free Energies=         -385.608262

                     E (Thermal)             CV                S
                      KCal/Mol        Cal/Mol-Kelvin    Cal/Mol-Kelvin
 Total                   96.695             29.561             83.261
 Electronic               0.000              0.000              0.000
 Translational            0.889              2.981             40.455
 Rotational               0.889              2.981             28.990
 Vibrational             94.917             23.599             13.815
 Vibration     1          0.621              1.892              2.555
 Vibration     2          0.626              1.877              2.412
 Vibration     3          0.704              1.640              1.323
 Vibration     4          0.722              1.588              1.196
 Vibration     5          0.780              1.433              0.901
 Vibration     6          0.793              1.399              0.851
 Vibration     7          0.850              1.263              0.673
 Vibration     8          0.933              1.082              0.492
 Vibration     9          0.973              1.003              0.427

 Normal termination of Gaussian 16 at Mon Mar 11 15:13:31 2024.
