 Gaussian 16, Revision C.01,

 --------------------------------------------
 #p opt freq b3lyp/def2tzvp geom=connectivity
 --------------------------------------------

 Ground state optimization and frequency calculation for neutral naphth
 alene.
 ----------------------------------------------------------------------
 Symbolic Z-matrix:
 Charge =  0 Multiplicity = 1

 SCF Done:  E(RB3LYP) =  -386.031385104     A.U. after   14 cycles
 SCF Done:  E(RB3LYP) =  -386.033052461     A.U. after   12 cycles
 SCF Done:  E(RB3LYP) =  -386.033075598     A.U. after    8 cycles
 SCF Done:  E(RB3LYP) =  -386.033079755     A.U. after    7 cycles
 Optimization completed.
    -- Stationary point found.
 Normal termination of Gaussian 16 at Wed Mar 27 14:15:58 2024.

 --------------------------------------------------------------------
 #P Geom=AllCheck Guess=TCheck SCRF=Check GenChk RB3LYP/def2TZVP Freq
 --------------------------------------------------------------------

 ----------------------------------------------------------------------
 Ground state optimization and frequency calculation for neutral naphth
 alene.
 ----------------------------------------------------------------------
 Charge =  0 Multiplicity = 1

 SCF Done:  E(RB3LYP) =  -386.033079755     A.U. after    1 cycles
 Optimization completed.
 Normal termination of Gaussian 16 at Wed Mar 27 14:19:55 2024.

 ----------------------------------------------------------------------
 #p opt freq=savenormalmodes b3lyp/def2tzvp TD=(nstates=2, Root=1) geom
 =check
 ----------------------------------------------------------------------

 --------------------------------------------------------------------
 Neutral naphthalene TD-DFT excitation/optimization freq calculation.
 --------------------------------------------------------------------
 Structure from the checkpoint file:  "Naphthalene_n_1-2.chk"
 Charge =  0 Multiplicity = 1

 SCF Done:  E(RB3LYP) =  -386.033079755     A.U. after   15 cycles
 Total Energy, E(TD-HF/TD-DFT) =  -385.872484928
 SCF Done:  E(RB3LYP) =  -386.025848576     A.U. after   11 cycles
 Total Energy, E(TD-HF/TD-DFT) =  -385.882168307
 SCF Done:  E(RB3LYP) =  -386.022862096     A.U. after    9 cycles
 Total Energy, E(TD-HF/TD-DFT) =  -385.882968158
 SCF Done:  E(RB3LYP) =  -386.022495395     A.U. after    8 cycles
 Total Energy, E(TD-HF/TD-DFT) =  -385.883013855
 SCF Done:  E(RB3LYP) =  -386.022535171     A.U. after    6 cycles
 Total Energy, E(TD-HF/TD-DFT) =  -385.883016768
    -- Stationary point found.
 Normal termination of Gaussian 16 at Wed Mar 27 14:36:03 2024.

 ----------------------------------------------------------------------
 #P Geom=AllCheck Guess=TCheck SCRF=Check GenChk RB3LYP TD(FC,Read)/def
 2TZVP Freq
 ----------------------------------------------------------------------

 Structure from the checkpoint file:  "Naphthalene_n_1-2.chk"
 --------------------------------------------------------------------
 Neutral naphthalene TD-DFT excitation/optimization freq calculation.
 --------------------------------------------------------------------
 Charge =  0 Multiplicity = 1

 SCF Done:  E(RB3LYP) =  -386.022535171     A.U. after    1 cycles

 Excitation energies and oscillator strengths:

 Excited State   1:      Singlet-A      3.7965 eV  326.58 nm  f=0.0707  <S**2>=0.000
      33 -> 36        -0.10662
      34 -> 35        -0.69646
 This state for optimization and/or second-order correction.
 Total Energy, E(TD-HF/TD-DFT) =  -385.883016770
 Copying the excited state density for this state as the 1-particle RhoCI density.

 Excited State   2:      Singlet-A      4.2790 eV  289.75 nm  f=0.0005  <S**2>=0.000
      33 -> 35         0.48872
      34 -> 36        -0.50985

 The electronic state is 1-A.
 Alpha  occ. eigenvalues --  -10.18865 -10.18828 -10.18382 -10.18381 -10.18380
 Alpha  occ. eigenvalues --  -10.18376 -10.18177 -10.18176 -10.18112 -10.18112
 Alpha  occ. eigenvalues --   -0.87642  -0.82284  -0.77349  -0.75300  -0.71087
 Alpha  occ. eigenvalues --   -0.63957  -0.61030  -0.60046  -0.51785  -0.51766
 Alpha  occ. eigenvalues --   -0.49871  -0.45230  -0.44986  -0.42430  -0.41757
 Alpha  occ. eigenvalues --   -0.39830  -0.39631  -0.38317  -0.34263  -0.33924
 Alpha  occ. eigenvalues --   -0.33364  -0.28961  -0.25950  -0.21388
 Alpha virt. eigenvalues --   -0.06277  -0.01828   0.00985   0.04828   0.05923
 Alpha virt. eigenvalues --    0.06361   0.07846   0.08863   0.09273   0.10219
 Alpha virt. eigenvalues --    0.11712   0.12986   0.14463   0.15621   0.16527

 Mulliken charges:
               1
     1  C   -0.107202
     2  C   -0.166933
     3  C    0.121311
     4  C    0.121311
     5  C   -0.166933
     6  C   -0.107202
     7  H    0.103358
     8  H    0.110122
     9  H    0.103358
    10  C   -0.166933
    11  C   -0.166933
    12  H    0.103358
    13  H    0.110122
    14  C   -0.107202
    15  C   -0.107202
    16  H    0.103358
    17  H    0.110122
    18  H    0.110122
 Sum of Mulliken charges =  -0.00000

 Dipole moment (field-independent basis, Debye):
    X=             -0.0000    Y=              0.0000    Z=              0.0000  Tot=              0.0000
 Quadrupole moment (field-independent basis, Debye-Ang):
   XX=            -51.4254   YY=            -52.4035   ZZ=            -64.2854
   XY=             -0.0000   XZ=              0.0000   YZ=             -0.0000

  Exact polarizability:     275.568      -0.000     131.410      -0.000       0.000      60.331
 Approx polarizability:     298.004       0.000     227.971       0.000       0.000      96.864

 Optimization completed.
    -- Stationary point found.
 Normal termination of Gaussian 16 at Wed Mar 27 14:43:01 2024.

 ------------------------------------------------------------------
 #p B3LYP/def2TZVP Freq(ReadFC, FC, ReadFCHT) geom=check guess=read
 ------------------------------------------------------------------

 Franck-Condon Analysis of neutral naphthalene for the absorption spect
 ra.
 ----------------------------------------------------------------------
 Structure from the checkpoint file:  "Naphthalene_n_1-1.chk"
 Charge =  0 Multiplicity = 1

 Normal termination of Gaussian 16 at Wed Mar 27 14:43:21 2024.

 ----------------------------------------------------------------------
 #p B3LYP/def2TZVP Freq(ReadFC, FC, ReadFCHT, emission) geom=check gues
 s=read
 ----------------------------------------------------------------------

 Franck-Condon Analysis of neutral naphthalene for the emission spectra
 .
 ----------------------------------------------------------------------
 Structure from the checkpoint file:  "Naphthalene_n_1-1.chk"
 Charge =  0 Multiplicity = 1

 Normal termination of Gaussian 16 at Wed Mar 27 14:43:41 2024.
 Normal termination of Gaussian 16 at Wed Mar 27 14:44:01 2024.
 Gaussian 16:  ES64L-G16RevC.01  3-Jul-2019

                         Standard orientation:
 ---------------------------------------------------------------------
 Center     Atomic      Atomic             Coordinates (Angstroms)
 Number     Number       Type             X           Y           Z
 ---------------------------------------------------------------------
      1          6           0       -2.424487   -0.705960    0.000001
      2          6           0       -1.240924   -1.397159   -0.000000
      3          6           0       -0.000013   -0.714099   -0.000001
      4          6           0        0.000014    0.714094   -0.000002
      5          6           0       -1.240910    1.397160   -0.000002
      6          6           0       -2.424473    0.705976    0.000001
      7          1           0        1.239589   -2.480958   -0.000007
      8          1           0       -3.365863   -1.240937    0.000002
      9          1           0       -1.239613   -2.480948    0.000001
     10          6           0        1.240916   -1.397167   -0.000001
     11          6           0        1.240928    1.397167   -0.000001
     12          1           0       -1.239595    2.480952    0.000002
     13          1           0       -3.365848    1.240957    0.000003
     14          6           0        2.424481    0.705963    0.000002
     15          6           0        2.424470   -0.705973    0.000002
     16          1           0        1.239599    2.480954   -0.000005
     17          1           0        3.365872    1.240919    0.000006
     18          1           0        3.365850   -1.240946    0.000002
 ---------------------------------------------------------------------

                      1                      2                      3
                      A                      A                      A
 Frequencies --    172.5935               186.4878               208.5208
 Red. masses --      4.1773                 3.4246                 4.5232
 Frc consts  --      0.0733                 0.0702                 0.1159
 IR Inten    --      2.6178                 0.0000                 0.0000

                      4                      5                      6
                      A                      A                      A
 Frequencies --    366.2483               396.2580               481.1596
 Red. masses --      3.8144                 3.1878                 3.3434
 Frc consts  --      0.3015                 0.2949                 0.4561
 IR Inten    --      1.4275                 0.0000                 0.0000

                      7                      8                      9
                      A                      A                      A
 Frequencies --    488.5770               520.2979               632.3553
 Red. masses --      2.5098                 6.7515                 3.6992
 Frc consts  --      0.3530                 1.0768                 0.8715
 IR Inten    --     22.9313                 0.0000                 0.0000

                     10                     11                     12
                      A                      A                      A
 Frequencies --    636.8345               728.7361               773.3265
 Red. masses --      6.4529                 1.1458                 4.5542
 Frc consts  --      1.5419                 0.3585                 1.6047
 IR Inten    --      3.3027                 0.0000                 0.0000

                     13                     14                     15
                      A                      A                      A
 Frequencies --    788.4123               799.8312               810.8862
 Red. masses --      2.8402                 1.3644                 5.3788
 Frc consts  --      1.0402                 0.5143                 2.0838
 IR Inten    --      0.0000               116.8347                 0.2099

                     16                     17                     18
                      A                      A                      A
 Frequencies --    847.8674               901.3441               946.1956
 Red. masses --      1.2687                 1.9040                 1.3058
 Frc consts  --      0.5374                 0.9114                 0.6888
 IR Inten    --      0.0000                 0.0000                 0.0000

                     19                     20                     21
                      A                      A                      A
 Frequencies --    954.6448               962.2504               967.6336
 Red. masses --      5.1391                 1.3828                 1.2491
 Frc consts  --      2.7594                 0.7544                 0.6891
 IR Inten    --      0.0000                 2.6105                 0.0000

                     22                     23                     24
                      A                      A                      A
 Frequencies --    973.5025              1037.0888              1041.9641
 Red. masses --      1.2508                 2.6542                 2.1399
 Frc consts  --      0.6984                 1.6819                 1.3688
 IR Inten    --      0.0000                 7.8404                 0.0000

                     25                     26                     27
                      A                      A                      A
 Frequencies --   1121.2909              1153.7269              1170.9372
 Red. masses --      1.2962                 1.6985                 1.2907
 Frc consts  --      0.9602                 1.3321                 1.0426
 IR Inten    --      0.0000                 4.7483                 0.7648

                     28                     29                     30
                      A                      A                      A
 Frequencies --   1185.3520              1233.9091              1268.9295
 Red. masses --      1.0966                 1.9845                 1.7671
 Frc consts  --      0.9078                 1.7802                 1.6765
 IR Inten    --      0.0000                 0.7117                 0.0000

                     31                     32                     33
                      A                      A                      A
 Frequencies --   1291.0740              1393.4817              1397.7118
 Red. masses --      1.8713                 3.4603                 8.6117
 Frc consts  --      1.8378                 3.9589                 9.9123
 IR Inten    --      6.6040                 0.7594                 0.0000

                     34                     35                     36
                      A                      A                      A
 Frequencies --   1423.9087              1495.1994              1496.0602
 Red. masses --      1.5830                 2.3447                 1.9171
 Frc consts  --      1.8910                 3.0884                 2.5281
 IR Inten    --      4.3077                 0.0000                 0.0000

                     37                     38                     39
                      A                      A                      A
 Frequencies --   1550.7844              1612.3295              1642.1406
 Red. masses --      3.1745                 6.4784                 4.8590
 Frc consts  --      4.4981                 9.9226                 7.7200
 IR Inten    --      8.6212                 0.0000                 3.8250

                     40                     41                     42
                      A                      A                      A
 Frequencies --   1662.7941              3155.6013              3161.8851
 Red. masses --      5.0831                 1.1009                 1.0854
 Frc consts  --      8.2805                 6.4588                 6.3935
 IR Inten    --      0.0000                 0.0000                 5.7514

                     43                     44                     45
                      A                      A                      A
 Frequencies --   3163.9736              3164.1419              3175.3683
 Red. masses --      1.0882                 1.0962                 1.1016
 Frc consts  --      6.4186                 6.4664                 6.5446
 IR Inten    --      0.6863                 0.0004                 0.0000

                     46                     47                     48
                      A                      A                      A
 Frequencies --   3179.3467              3190.9366              3191.8587
 Red. masses --      1.0929                 1.0969                 1.0966
 Frc consts  --      6.5087                 6.5802                 6.5827
 IR Inten    --     51.2912                38.1430                 0.0003

 - Thermochemistry -
 -------------------
 Temperature   298.150 Kelvin.  Pressure   1.00000 Atm.
 Atom     1 has atomic number  6 and mass  12.00000

 Molecular mass:   128.06260 amu.
 Principal axes and moments of inertia in atomic units:
                           1         2         3
     Eigenvalues --   574.517971456.736762031.25473
           X            1.00000  -0.00000  -0.00000
           Y            0.00000   1.00000   0.00000
           Z            0.00000  -0.00000   1.00000
 This molecule is an asymmetric top.
 Rotational symmetry number  1.
 Warning -- assumption of classical behavior for rotation
           may cause significant error
 Rotational temperatures (Kelvin)      0.15076     0.05946     0.04264
 Rotational constants (GHZ):           3.14131     1.23889     0.88849
 Zero-point vibrational energy     383437.6 (Joules/Mol)
                                   91.64378 (Kcal/Mol)
 Warning -- explicit consideration of   8 degrees of freedom as
           vibrations may cause significant error
 Vibrational temperatures:    248.32   268.31   300.01   526.95   570.13
          (Kelvin)            692.28   702.95   748.59   909.82   916.26
                             1048.49  1112.64  1134.35  1150.78  1166.68
                             1219.89  1296.83  1361.36  1373.52  1384.46
                             1392.21  1400.65  1492.14  1499.15  1613.29
                             1659.96  1684.72  1705.46  1775.32  1825.71
                             1857.57  2004.91  2011.00  2048.69  2151.26
                             2152.50  2231.23  2319.78  2362.67  2392.39
                             4540.21  4549.25  4552.25  4552.49  4568.65
                             4574.37  4591.05  4592.37

 Zero-point correction=                           0.146044 (Hartree/Particle)
 Thermal correction to Energy=                    0.153215
 Thermal correction to Enthalpy=                  0.154159
 Thermal correction to Gibbs Free Energy=         0.114482
 Sum of electronic and zero-point Energies=           -385.887036
 Sum of electronic and thermal Energies=              -385.879864
 Sum of electronic and thermal Enthalpies=            -385.878920
 Sum of electronic and thermal Free Energies=         -385.918598

                     E (Thermal)             CV                S
                      KCal/Mol        Cal/Mol-Kelvin    Cal/Mol-Kelvin
 Total                   96.144             29.620             83.509
 Electronic               0.000              0.000              0.000
 Translational            0.889              2.981             40.455
 Rotational               0.889              2.981             28.921
 Vibrational             94.367             23.658             14.133
 Vibration     1          0.626              1.876              2.407
 Vibration     2          0.632              1.858              2.262
 Vibration     3          0.642              1.828              2.057
 Vibration     4          0.739              1.542              1.095
 Vibration     5          0.763              1.478              0.977
 Vibration     6          0.837              1.292              0.707
 Vibration     7          0.844              1.275              0.687
 Vibration     8          0.875              1.205              0.609

 Error termination via Lnk1e in /apps/gaussian/g16-c01-avx2/g16/l718.exe at Wed Mar 27 14:44:06 2024.
