 Gaussian 16, Revision C.01,
 Gaussian 16:  ES64L-G16RevC.01  3-Jul-2019

 -----------------------------------
 #P TEST OPT STO-3G scf=conventional
 -----------------------------------

 Gaussian Test Job 16 STO-3G BERNY OPTIMIZATION OF WATER save .chk to r
 ead later for freq
 ----------------------------------------------------------------------
 Symbolic Z-matrix:
 Charge =  0 Multiplicity = 1

 SCF Done:  E(RHF) =  -74.9607232751     A.U. after    7 cycles
 SCF Done:  E(RHF) =  -74.9650755910     A.U. after    8 cycles
 SCF Done:  E(RHF) =  -74.9658569267     A.U. after    6 cycles
 SCF Done:  E(RHF) =  -74.9659011712     A.U. after    6 cycles
 Optimization completed.
    -- Stationary point found.

                         Standard orientation:
 ---------------------------------------------------------------------
 Center     Atomic      Atomic             Coordinates (Angstroms)
 Number     Number       Type             X           Y           Z
 ---------------------------------------------------------------------
      1          8           0       -0.000000    0.000000    0.127131
      2          1           0       -0.000000    0.758016   -0.508525
      3          1           0       -0.000000   -0.758016   -0.508525
 ---------------------------------------------------------------------

 The electronic state is 1-A1.
 Alpha  occ. eigenvalues --  -20.25155  -1.25761  -0.59394  -0.45973  -0.39262
 Alpha virt. eigenvalues --    0.58192   0.69286

 Mulliken charges:
               1
     1  O   -0.330665
     2  H    0.165333
     3  H    0.165333
 Sum of Mulliken charges =  -0.00000

 Dipole moment (field-independent basis, Debye):
    X=             -0.0000    Y=              0.0000    Z=             -1.7094  Tot=              1.7094
 Quadrupole moment (field-independent basis, Debye-Ang):
   XX=             -6.1255   YY=             -4.4854   ZZ=             -5.3333
   XY=              0.0000   XZ=              0.0000   YZ=             -0.0000

 Normal termination of Gaussian 16 at Sun Jan 28 02:33:10 2024.
