 Gaussian 16, Revision C.01,

 --------------------------------------------
 #p B3LYP/Def2TZVP geom=connectivity opt freq
 --------------------------------------------

 Ground state geometry optimization and frequency calculation of peryle
 ne.
 ----------------------------------------------------------------------
 Symbolic Z-matrix:
 Charge =  1 Multiplicity = 2

 SCF Done:  E(UB3LYP) =  -769.412354227     A.U. after   17 cycles
 SCF Done:  E(UB3LYP) =  -769.428200893     A.U. after   15 cycles
 SCF Done:  E(UB3LYP) =  -769.429413417     A.U. after   14 cycles
 SCF Done:  E(UB3LYP) =  -769.429483150     A.U. after   10 cycles
 SCF Done:  E(UB3LYP) =  -769.429487523     A.U. after    9 cycles
 Optimization completed.
    -- Stationary point found.
 Normal termination of Gaussian 16 at Tue May  7 11:26:41 2024.

 --------------------------------------------------------------------
 #P Geom=AllCheck Guess=TCheck SCRF=Check GenChk UB3LYP/def2TZVP Freq
 --------------------------------------------------------------------

 ----------------------------------------------------------------------
 Ground state geometry optimization and frequency calculation of peryle
 ne.
 ----------------------------------------------------------------------
 Charge =  1 Multiplicity = 2

 SCF Done:  E(UB3LYP) =  -769.429487523     A.U. after    1 cycles
 Optimization completed.
 Normal termination of Gaussian 16 at Tue May  7 11:43:12 2024.

 ----------------------------------------------------------------------
 #p B3LYP/Def2TZVP TD=(NStates=5, Root=1) geom=check guess=read opt fre
 q=savenormalmodes
 ----------------------------------------------------------------------

 One point excitation calculation for the perylene molecule, followed b
 y the excited state geometry optimization.
 ----------------------------------------------------------------------
 Structure from the checkpoint file:  "pc1.chk"
 Charge =  1 Multiplicity = 2

 SCF Done:  E(UB3LYP) =  -769.429487523     A.U. after    2 cycles
 Total Energy, E(TD-HF/TD-DFT) =  -769.363934392
 SCF Done:  E(UB3LYP) =  -769.428236140     A.U. after   14 cycles
 Total Energy, E(TD-HF/TD-DFT) =  -769.365889109
 SCF Done:  E(UB3LYP) =  -769.426460571     A.U. after   12 cycles
 Total Energy, E(TD-HF/TD-DFT) =  -769.366433693
 SCF Done:  E(UB3LYP) =  -769.426219516     A.U. after   11 cycles
 Total Energy, E(TD-HF/TD-DFT) =  -769.366473049
 SCF Done:  E(UB3LYP) =  -769.426248117     A.U. after    9 cycles
 Total Energy, E(TD-HF/TD-DFT) =  -769.366477521
    -- Stationary point found.
 Normal termination of Gaussian 16 at Tue May  7 12:59:37 2024.

 ----------------------------------------------------------------------
 #P Geom=AllCheck Guess=TCheck SCRF=Check GenChk UB3LYP TD(FC,Read)/def
 2TZVP Freq
 ----------------------------------------------------------------------

 ----------------------------------------------------------------------
 One point excitation calculation for the perylene molecule, followed b
 y the excited state geometry optimization.
 ----------------------------------------------------------------------
 Charge =  1 Multiplicity = 2

 SCF Done:  E(UB3LYP) =  -769.426248117     A.U. after    1 cycles

 Excitation energies and oscillator strengths:

 Excited State   1:  2.024-A      1.6264 eV  762.30 nm  f=0.0174  <S**2>=0.775
     66A -> 67A        0.87011
     64B -> 66B        0.48133
 This state for optimization and/or second-order correction.
 Total Energy, E(TD-HF/TD-DFT) =  -769.366477527
 Copying the excited state density for this state as the 1-particle RhoCI density.

 Excited State   2:  2.078-A      2.0683 eV  599.45 nm  f=0.0314  <S**2>=0.829
     64A -> 67A        0.19358
     66A -> 71A        0.11719
     63B -> 66B       -0.35944
     65B -> 66B       -0.89904

 Excited State   3:  2.055-A      2.0743 eV  597.71 nm  f=0.0034  <S**2>=0.806
     62B -> 67B        0.10669
     63B -> 66B       -0.91788
     65B -> 66B        0.37316

 Excited State   4:  2.156-A      2.1925 eV  565.48 nm  f=0.0000  <S**2>=0.912
     62A -> 67A        0.16249
     66A -> 68A        0.13434
     62B -> 66B        0.95479
     63B -> 67B       -0.11693
     65B -> 67B       -0.12666

 Excited State   5:  2.051-A      2.4933 eV  497.27 nm  f=0.3595  <S**2>=0.801
     66A -> 67A       -0.46007
     64B -> 66B        0.86496
     65B -> 69B        0.11294

 The electronic state is 2-A.
 Alpha  occ. eigenvalues --  -10.34529 -10.34527 -10.34489 -10.34486 -10.33422
 Alpha  occ. eigenvalues --  -10.33419 -10.33379 -10.33377 -10.33374 -10.33374
 Alpha  occ. eigenvalues --  -10.33208 -10.33207 -10.33206 -10.33205 -10.33097
 Alpha  occ. eigenvalues --  -10.33096 -10.31942 -10.31942 -10.31942 -10.31941
 Alpha  occ. eigenvalues --   -1.04876  -1.01830  -0.99034  -0.96571  -0.96199
 Alpha  occ. eigenvalues --   -0.90459  -0.90163  -0.89801  -0.88893  -0.83958
 Alpha  occ. eigenvalues --   -0.80267  -0.78300  -0.77844  -0.76424  -0.73976
 Alpha  occ. eigenvalues --   -0.69528  -0.68374  -0.68084  -0.65954  -0.64198
 Alpha  occ. eigenvalues --   -0.63147  -0.62155  -0.60972  -0.60242  -0.58403
 Alpha  occ. eigenvalues --   -0.57382  -0.57007  -0.56815  -0.55606  -0.55332
 Alpha  occ. eigenvalues --   -0.53376  -0.53310  -0.53174  -0.52513  -0.50832
 Alpha  occ. eigenvalues --   -0.50453  -0.49925  -0.47440  -0.47288  -0.47266
 Alpha  occ. eigenvalues --   -0.46762  -0.40678  -0.40635  -0.40590  -0.39783
 Alpha  occ. eigenvalues --   -0.33588
 Alpha virt. eigenvalues --   -0.24289  -0.17281  -0.17021  -0.16127  -0.14876
 Alpha virt. eigenvalues --   -0.08580  -0.08075  -0.07504  -0.06422  -0.05820
 Alpha virt. eigenvalues --   -0.04564  -0.04246  -0.02965  -0.02764  -0.02402

  Beta  occ. eigenvalues --  -10.34488 -10.34485 -10.34446 -10.34443 -10.33426
  Beta  occ. eigenvalues --  -10.33423 -10.33206 -10.33204 -10.33093 -10.33093
  Beta  occ. eigenvalues --  -10.33082 -10.33081 -10.33025 -10.33025 -10.33024
  Beta  occ. eigenvalues --  -10.33023 -10.32012 -10.32011 -10.32011 -10.32010
  Beta  occ. eigenvalues --   -1.04712  -1.01606  -0.98712  -0.96243  -0.95920
  Beta  occ. eigenvalues --   -0.90312  -0.89850  -0.89397  -0.88818  -0.83257
  Beta  occ. eigenvalues --   -0.79887  -0.78214  -0.77613  -0.76295  -0.73742
  Beta  occ. eigenvalues --   -0.69335  -0.68276  -0.67912  -0.65827  -0.63935
  Beta  occ. eigenvalues --   -0.63047  -0.62020  -0.60916  -0.60163  -0.58275
  Beta  occ. eigenvalues --   -0.57312  -0.56678  -0.56553  -0.55501  -0.55199
  Beta  occ. eigenvalues --   -0.53200  -0.53113  -0.52718  -0.52387  -0.50721
  Beta  occ. eigenvalues --   -0.49821  -0.49595  -0.47408  -0.46625  -0.46301
  Beta  occ. eigenvalues --   -0.46246  -0.40324  -0.39718  -0.39376  -0.39080
  Beta virt. eigenvalues --   -0.28647  -0.22426  -0.16868  -0.16328  -0.15275
  Beta virt. eigenvalues --   -0.14180  -0.07882  -0.07441  -0.07337  -0.06367
  Beta virt. eigenvalues --   -0.05770  -0.04471  -0.04223  -0.02718  -0.02361

 Mulliken charges and spin densities:
               1          2
     1  C   -0.081235  -0.047181
     2  C   -0.152002   0.113801
     3  C    0.144327   0.038207
     4  C   -0.093276  -0.015423
     5  C    0.140738  -0.069893
     6  C   -0.115916   0.198699
     7  C    0.144329   0.038208
     8  C    0.144243   0.038208
     9  C    0.144243   0.038208
    10  C   -0.093275  -0.015423
    11  C   -0.152002   0.113795
    12  C   -0.152002   0.113794
    13  C   -0.081232  -0.047177
    14  C   -0.115908   0.198687
    15  H    0.150605  -0.007390
    16  H    0.152160   0.001464
    17  H    0.152159   0.001464
    18  H    0.150605  -0.007390
    19  C   -0.152003   0.113798
    20  C   -0.081235  -0.047180
    21  C   -0.115915   0.198700
    22  C    0.140737  -0.069893
    23  H    0.152159   0.001464
    24  H    0.150605  -0.007390
    25  C   -0.081232  -0.047178
    26  H    0.152160   0.001464
    27  C   -0.115908   0.198689
    28  H    0.150605  -0.007390
    29  H    0.128361  -0.004936
    30  H    0.128361  -0.004936
    31  H    0.128372  -0.004936
    32  H    0.128372  -0.004936
 Sum of Mulliken charges =   1.00000   1.00000

 Dipole moment (field-independent basis, Debye):
    X=              0.0000    Y=             -0.0000    Z=              0.0000  Tot=              0.0000
 Quadrupole moment (field-independent basis, Debye-Ang):
   XX=            -53.5838   YY=            -71.2079   ZZ=           -117.9441
   XY=              0.0000   XZ=              0.0000   YZ=              0.0000

  Exact polarizability:     366.106      -0.000     308.334       0.000      -0.000      97.795
 Approx polarizability:     781.380       0.000     598.102       0.000       0.000     171.686

 Optimization completed.
    -- Stationary point found.
 Normal termination of Gaussian 16 at Tue May  7 13:55:37 2024.

 ------------------------------------------------------------------
 #p B3LYP/Def2TZVP Freq(ReadFC, FC, ReadFCHT) geom=check guess=read
 ------------------------------------------------------------------

 FC analysis for perylene, investigating the S1 PES and simulating the
 absorption spectrum.
 ----------------------------------------------------------------------
 Structure from the checkpoint file:  "pc0.chk"
 Charge =  1 Multiplicity = 2

 Normal termination of Gaussian 16 at Tue May  7 13:56:26 2024.

 ----------------------------------------------------------------------
 #p B3LYP/Def2TZVP Freq(ReadFC, FC, ReadFCHT, emission) geom=check gues
 s=read
 ----------------------------------------------------------------------

 FC analysis for perylene, investigating the S1 PES and simulating the
 emission spectrum.
 ----------------------------------------------------------------------
 Structure from the checkpoint file:  "pc0.chk"
 Charge =  1 Multiplicity = 2

 Normal termination of Gaussian 16 at Tue May  7 13:57:14 2024.
 Normal termination of Gaussian 16 at Tue May  7 13:57:58 2024.
 Gaussian 16:  ES64L-G16RevC.01  3-Jul-2019

                         Standard orientation:
 ---------------------------------------------------------------------
 Center     Atomic      Atomic             Coordinates (Angstroms)
 Number     Number       Type             X           Y           Z
 ---------------------------------------------------------------------
      1          6           0       -2.860757   -2.424360    0.000146
      2          6           0       -1.473376   -2.430900    0.000123
      3          6           0       -0.723954   -1.240577    0.000030
      4          6           0       -1.421602    0.000064   -0.000002
      5          6           0       -2.848921   -0.000066   -0.000004
      6          6           0       -3.547118   -1.224247    0.000069
      7          6           0        0.723939   -1.240669   -0.000031
      8          6           0       -0.724032    1.240901   -0.000029
      9          6           0        0.724059    1.240883    0.000030
     10          6           0        1.421620    0.000085    0.000001
     11          6           0        1.473836    2.430999    0.000111
     12          6           0       -1.473839    2.430983   -0.000110
     13          6           0       -2.861259    2.424192   -0.000140
     14          6           0       -3.547360    1.224064   -0.000076
     15          1           0       -4.629989    1.212094   -0.000086
     16          1           0       -3.401950    3.360883   -0.000208
     17          1           0       -3.401430   -3.361050    0.000221
     18          1           0       -4.629756   -1.212523    0.000071
     19          6           0        1.473407   -2.430876   -0.000124
     20          6           0        2.860842   -2.424300   -0.000145
     21          6           0        3.547123   -1.224269   -0.000068
     22          6           0        2.848848   -0.000034    0.000004
     23          1           0        3.401341   -3.361095   -0.000219
     24          1           0        4.629758   -1.212437   -0.000070
     25          6           0        2.861260    2.424218    0.000139
     26          1           0        3.401985    3.360884    0.000205
     27          6           0        3.547314    1.224062    0.000075
     28          1           0        4.629947    1.212017    0.000085
     29          1           0       -0.972142   -3.386913    0.000192
     30          1           0        0.972113   -3.386859   -0.000194
     31          1           0       -0.972832    3.387057   -0.000163
     32          1           0        0.972772    3.387041    0.000166
 ---------------------------------------------------------------------

                      1                      2                      3
                      A                      A                      A
 Frequencies --     43.0607                90.1610               139.7196
 Red. masses --      4.6666                 4.5331                 3.4255
 Frc consts  --      0.0051                 0.0217                 0.0394
 IR Inten    --      0.0000                 1.3875                 0.0000

                      4                      5                      6
                      A                      A                      A
 Frequencies --    170.8167               202.8057               244.8104
 Red. masses --      4.4098                 3.9390                 3.2003
 Frc consts  --      0.0758                 0.0955                 0.1130
 IR Inten    --      8.3294                 0.0000                 0.0000

                      7                      8                      9
                      A                      A                      A
 Frequencies --    252.1769               282.5449               358.6156
 Red. masses --      5.0516                 5.0282                 6.4797
 Frc consts  --      0.1893                 0.2365                 0.4910
 IR Inten    --      1.2557                 0.0000                 0.0000

                     10                     11                     12
                      A                      A                      A
 Frequencies --    369.4340               417.5221               435.7866
 Red. masses --      6.9889                 3.9040                 5.0534
 Frc consts  --      0.5620                 0.4010                 0.5654
 IR Inten    --      0.0000                 0.0000                 0.0000

                     13                     14                     15
                      A                      A                      A
 Frequencies --    456.9039               466.6812               466.8002
 Red. masses --      2.8942                 4.6641                 3.2597
 Frc consts  --      0.3560                 0.5985                 0.4185
 IR Inten    --      0.0000                 0.7033                 1.5430

                     16                     17                     18
                      A                      A                      A
 Frequencies --    515.3292               530.2472               537.5728
 Red. masses --      3.2628                 7.4279                 6.2661
 Frc consts  --      0.5105                 1.2305                 1.0669
 IR Inten    --      0.0000                 1.4412                 0.0000

                     19                     20                     21
                      A                      A                      A
 Frequencies --    546.4701               556.2865               588.0703
 Red. masses --      4.0267                 6.5213                 5.8752
 Frc consts  --      0.7085                 1.1890                 1.1971
 IR Inten    --      8.3142                 0.0000                 7.2982

                     22                     23                     24
                      A                      A                      A
 Frequencies --    630.4165               632.7353               664.5014
 Red. masses --      3.0636                 7.7329                 4.0041
 Frc consts  --      0.7174                 1.8240                 1.0417
 IR Inten    --      0.0000                 0.0000                 0.0000

                     25                     26                     27
                      A                      A                      A
 Frequencies --    671.8580               777.0805               778.2728
 Red. masses --      1.9736                 5.9785                 1.5990
 Frc consts  --      0.5249                 2.1270                 0.5706
 IR Inten    --      0.0000                 6.3334               122.1125

                     28                     29                     30
                      A                      A                      A
 Frequencies --    778.6372               783.5731               805.8782
 Red. masses --      1.4274                 1.2552                 5.0778
 Frc consts  --      0.5099                 0.4541                 1.9430
 IR Inten    --      0.0075                 0.0042                 1.2141

                     31                     32                     33
                      A                      A                      A
 Frequencies --    807.3767               812.6641               828.6516
 Red. masses --      1.8240                 5.3825                 6.7988
 Frc consts  --      0.7005                 2.0944                 2.7506
 IR Inten    --      0.0000                 0.0000                 2.1463

                     34                     35                     36
                      A                      A                      A
 Frequencies --    854.7911               917.7302               919.8480
 Red. masses --      3.1469                 1.4562                 5.8261
 Frc consts  --      1.3547                 0.7226                 2.9044
 IR Inten    --     39.4766                 0.0000                 0.0000

                     37                     38                     39
                      A                      A                      A
 Frequencies --    936.4068               949.9058               960.0403
 Red. masses --      1.3456                 1.5505                 1.4625
 Frc consts  --      0.6952                 0.8243                 0.7942
 IR Inten    --      0.0001                 0.0000                 4.3052

                     40                     41                     42
                      A                      A                      A
 Frequencies --    965.9071               996.8943              1005.2499
 Red. masses --      5.9930                 1.3603                 1.3502
 Frc consts  --      3.2943                 0.7965                 0.8039
 IR Inten    --      0.0000                 0.0000                 0.0000

                     43                     44                     45
                      A                      A                      A
 Frequencies --   1007.3338              1009.3819              1011.2118
 Red. masses --      1.4133                 4.2355                 1.3882
 Frc consts  --      0.8449                 2.5425                 0.8363
 IR Inten    --      0.0000                 0.0000                 0.0219

                     46                     47                     48
                      A                      A                      A
 Frequencies --   1058.1450              1092.0967              1123.6239
 Red. masses --      6.4380                 2.7381                 1.7054
 Frc consts  --      4.2471                 1.9241                 1.2686
 IR Inten    --     13.9828                 0.0000                 1.7745

                     49                     50                     51
                      A                      A                      A
 Frequencies --   1135.7624              1152.0835              1170.8299
 Red. masses --      2.0945                 1.5391                 1.5750
 Frc consts  --      1.5919                 1.2036                 1.2721
 IR Inten    --      0.0000                19.8214                 0.0001

                     52                     53                     54
                      A                      A                      A
 Frequencies --   1182.6305              1214.5738              1224.9052
 Red. masses --      1.4570                 1.4307                 1.3363
 Frc consts  --      1.2006                 1.2435                 1.1813
 IR Inten    --      4.8097                 0.0000                42.3544

                     55                     56                     57
                      A                      A                      A
 Frequencies --   1233.0166              1249.8876              1250.7672
 Red. masses --      1.2850                 2.0412                 1.9504
 Frc consts  --      1.1511                 1.8788                 1.7977
 IR Inten    --      0.0026                26.5139                 0.0622

                     58                     59                     60
                      A                      A                      A
 Frequencies --   1260.6177              1319.0635              1324.8585
 Red. masses --      1.9930                 2.2000                 5.0093
 Frc consts  --      1.8661                 2.2553                 5.1804
 IR Inten    --      0.0001                 0.0414               128.6464

                     61                     62                     63
                      A                      A                      A
 Frequencies --   1366.2505              1372.8762              1400.6962
 Red. masses --     11.5860                 4.7782                 5.2679
 Frc consts  --     12.7421                 5.3061                 6.0894
 IR Inten    --    185.8255                 0.7201                 0.0002

                     64                     65                     66
                      A                      A                      A
 Frequencies --   1401.3172              1410.5507              1423.3733
 Red. masses --      3.2386                 3.9341                 2.2559
 Frc consts  --      3.7470                 4.6118                 2.6928
 IR Inten    --      0.0007                 0.0003                40.2553

                     67                     68                     69
                      A                      A                      A
 Frequencies --   1480.2935              1482.8839              1485.0512
 Red. masses --      2.1112                 3.1143                 2.1382
 Frc consts  --      2.7257                 4.0348                 2.7783
 IR Inten    --      8.9160                 0.0399                 0.0000

                     70                     71                     72
                      A                      A                      A
 Frequencies --   1498.0305              1525.6099              1570.0579
 Red. masses --      2.7361                 2.5816                 4.5106
 Frc consts  --      3.6176                 3.5401                 6.5511
 IR Inten    --      0.0000                 1.7298                 0.0000

                     73                     74                     75
                      A                      A                      A
 Frequencies --   1589.9732              1593.8167              1598.7070
 Red. masses --      4.4367                 3.3976                 5.9059
 Frc consts  --      6.6083                 5.0851                 8.8936
 IR Inten    --    157.8130                 0.0306                93.1973

                     76                     77                     78
                      A                      A                      A
 Frequencies --   1606.5557              1611.2976              1619.8089
 Red. masses --      5.3968                 4.0118                 5.6932
 Frc consts  --      8.2069                 6.1368                 8.8011
 IR Inten    --      0.0018                 9.9128                 0.0010

                     79                     80                     81
                      A                      A                      A
 Frequencies --   3187.1055              3187.3419              3189.6003
 Red. masses --      1.0890                 1.0893                 1.0886
 Frc consts  --      6.5176                 6.5202                 6.5250
 IR Inten    --      0.0000                 0.0113                 0.1600

                     82                     83                     84
                      A                      A                      A
 Frequencies --   3190.0579              3202.1759              3202.5849
 Red. masses --      1.0890                 1.0920                 1.0919
 Frc consts  --      6.5293                 6.5972                 6.5981
 IR Inten    --      0.0000                 0.0678                 4.0242

                     85                     86                     87
                      A                      A                      A
 Frequencies --   3204.7062              3205.1216              3216.2637
 Red. masses --      1.0939                 1.0937                 1.0951
 Frc consts  --      6.6193                 6.6199                 6.6742
 IR Inten    --      0.5504                 0.0002                 0.0276

                     88                     89                     90
                      A                      A                      A
 Frequencies --   3216.6123              3232.8009              3233.2251
 Red. masses --      1.0950                 1.0894                 1.0893
 Frc consts  --      6.6751                 6.7078                 6.7093
 IR Inten    --      0.0144                 1.4641                 0.7943

 - Thermochemistry -
 -------------------
 Temperature   298.150 Kelvin.  Pressure   1.00000 Atm.
 Atom     1 has atomic number  6 and mass  12.00000

 Molecular mass:   252.09390 amu.
 Principal axes and moments of inertia in atomic units:
                           1         2         3
     Eigenvalues --  2890.020495379.587818269.60829
           X            1.00000   0.00000  -0.00000
           Y           -0.00000   1.00000  -0.00000
           Z            0.00000   0.00000   1.00000
 This molecule is an asymmetric top.
 Rotational symmetry number  1.
 Warning -- assumption of classical behavior for rotation
           may cause significant error
 Rotational temperatures (Kelvin)      0.02997     0.01610     0.01047
 Rotational constants (GHZ):           0.62447     0.33548     0.21824
 Zero-point vibrational energy     667969.4 (Joules/Mol)
                                  159.64853 (Kcal/Mol)
 Warning -- explicit consideration of  21 degrees of freedom as
           vibrations may cause significant error
 Vibrational temperatures:     61.95   129.72   201.03   245.77   291.79
          (Kelvin)            352.23   362.83   406.52   515.97   531.53
                              600.72   627.00   657.38   671.45   671.62
                              741.44   762.91   773.45   786.25   800.37
                              846.10   907.03   910.37   956.07   966.65
                             1118.05  1119.76  1120.29  1127.39  1159.48
                             1161.64  1169.24  1192.24  1229.85  1320.41
                             1323.46  1347.28  1366.70  1381.28  1389.72
                             1434.31  1446.33  1449.33  1452.28  1454.91
                             1522.43  1571.28  1616.64  1634.11  1657.59
                             1684.56  1701.54  1747.50  1762.37  1774.04
                             1798.31  1799.58  1813.75  1897.84  1906.18
                             1965.73  1975.26  2015.29  2016.18  2029.47
                             2047.92  2129.81  2133.54  2136.66  2155.33
                             2195.01  2258.96  2287.62  2293.15  2300.18
                             2311.48  2318.30  2330.54  4585.53  4585.87
                             4589.12  4589.78  4607.22  4607.81  4610.86
                             4611.46  4627.49  4627.99  4651.28  4651.89

 Zero-point correction=                           0.254416 (Hartree/Particle)
 Thermal correction to Energy=                    0.267327
 Thermal correction to Enthalpy=                  0.268271
 Thermal correction to Gibbs Free Energy=         0.214525
 Sum of electronic and zero-point Energies=           -769.175071
 Sum of electronic and thermal Energies=              -769.162160
 Sum of electronic and thermal Enthalpies=            -769.161216
 Sum of electronic and thermal Free Energies=         -769.214963

                     E (Thermal)             CV                S
                      KCal/Mol        Cal/Mol-Kelvin    Cal/Mol-Kelvin
 Total                  167.750             56.189            113.120
 Electronic               0.000              0.000              1.377
 Translational            0.889              2.981             42.474
 Rotational               0.889              2.981             33.219
 Vibrational            165.973             50.228             36.049
 Vibration     1          0.595              1.980              5.113
 Vibration     2          0.602              1.956              3.657
 Vibration     3          0.615              1.914              2.808
 Vibration     4          0.626              1.878              2.426
 Vibration     5          0.639              1.836              2.107
 Vibration     6          0.660              1.771              1.768
 Vibration     7          0.664              1.759              1.715
 Vibration     8          0.682              1.706              1.518
 Vibration     9          0.733              1.558              1.128
 Vibration    10          0.742              1.535              1.082
 Vibration    11          0.781              1.432              0.900
 Vibration    12          0.796              1.392              0.840
 Vibration    13          0.815              1.346              0.775
 Vibration    14          0.824              1.324              0.747
 Vibration    15          0.824              1.324              0.747
 Vibration    16          0.870              1.216              0.621
 Vibration    17          0.885              1.183              0.587
 Vibration    18          0.893              1.167              0.571
 Vibration    19          0.902              1.147              0.552
 Vibration    20          0.912              1.126              0.531
 Vibration    21          0.945              1.057              0.471

 Normal termination of Gaussian 16 at Tue May  7 13:58:44 2024.
