 Gaussian 16, Revision C.01,
 Gaussian 16:  ES64L-G16RevC.01  3-Jul-2019

 -------------------------------------------
 # CAM-B3LYP/TZVP geom=connectivity Opt Freq
 -------------------------------------------

 --------------------------------------------------------------------
 Ground state optimization and frequency calculation for formaldehyde
 --------------------------------------------------------------------
 Symbolic Z-matrix:
 Charge =  0 Multiplicity = 1

 SCF Done:  E(RCAM-B3LYP) =  -114.492229738     A.U. after   12 cycles
 SCF Done:  E(RCAM-B3LYP) =  -114.498150903     A.U. after   11 cycles
 SCF Done:  E(RCAM-B3LYP) =  -114.498520164     A.U. after   10 cycles
 SCF Done:  E(RCAM-B3LYP) =  -114.498536673     A.U. after    8 cycles
 Optimization completed.
    -- Stationary point found.
 Normal termination of Gaussian 16 at Thu Feb 22 10:21:41 2024.

 --------------------------------------------------------------------
 #N Geom=AllCheck Guess=TCheck SCRF=Check GenChk RCAM-B3LYP/TZVP Freq
 --------------------------------------------------------------------

 Structure from the checkpoint file:  "formaldehyde_CAM-B3LYP.chk"
 --------------------------------------------------------------------
 Ground state optimization and frequency calculation for formaldehyde
 --------------------------------------------------------------------
 Charge =  0 Multiplicity = 1

                         Standard orientation:
 ---------------------------------------------------------------------
 Center     Atomic      Atomic             Coordinates (Angstroms)
 Number     Number       Type             X           Y           Z
 ---------------------------------------------------------------------
      1          6           0        0.000000    0.000000   -0.525399
      2          1           0       -0.000000   -0.938455   -1.109114
      3          1           0        0.000000    0.938455   -1.109114
      4          8           0       -0.000000   -0.000000    0.671328
 ---------------------------------------------------------------------

 SCF Done:  E(RCAM-B3LYP) =  -114.498536673     A.U. after    1 cycles

 The electronic state is 1-A1.
 Alpha  occ. eigenvalues --  -19.22139 -10.34984  -1.15567  -0.71720  -0.57826
 Alpha  occ. eigenvalues --   -0.53094  -0.47869  -0.34230
 Alpha virt. eigenvalues --   -0.00188   0.09506   0.14924   0.15478   0.24465
 Alpha virt. eigenvalues --    0.25021   0.30121   0.45846   0.48341   0.49786
 Alpha virt. eigenvalues --    0.55848   0.58738   0.66688   0.78045   1.22538

 Mulliken charges:
               1
     1  C    0.110164
     2  H    0.078855
     3  H    0.078855
     4  O   -0.267873
 Sum of Mulliken charges =  -0.00000

 Dipole moment (field-independent basis, Debye):
    X=              0.0000    Y=             -0.0000    Z=             -2.4592  Tot=              2.4592
 Quadrupole moment (field-independent basis, Debye-Ang):
   XX=            -11.6952   YY=            -11.6821   ZZ=            -12.4118
   XY=              0.0000   XZ=             -0.0000   YZ=              0.0000

  Exact polarizability:       8.790       0.000      14.939       0.000       0.000      20.717
 Approx polarizability:       9.528       0.000      14.414      -0.000       0.000      25.549

                      1                      2                      3
                     B1                     B2                     A1
 Frequencies --   1223.2557              1285.4221              1552.7372
 Red. masses --      1.3675                 1.3445                 1.1026
 Frc consts  --      1.2056                 1.3088                 1.5662
 IR Inten    --      3.1335                11.2022                10.2125

                      4                      5                      6
                     A1                     A1                     B2
 Frequencies --   1855.2821              2924.3076              2989.6339
 Red. masses --      7.5504                 1.0443                 1.1205
 Frc consts  --     15.3124                 5.2614                 5.9008
 IR Inten    --    117.7152                56.8630               120.7078

 - Thermochemistry -
 -------------------
 Temperature   298.150 Kelvin.  Pressure   1.00000 Atm.
 Atom     1 has atomic number  6 and mass  12.00000

 Molecular mass:    30.01056 amu.
 Principal axes and moments of inertia in atomic units:
                           1         2         3
     Eigenvalues --     6.33928  45.85156  52.19084
           X            0.00000  -0.00000   1.00000
           Y            0.00000   1.00000   0.00000
           Z            1.00000   0.00000   0.00000
 This molecule is an asymmetric top.
 Rotational symmetry number  2.
 Rotational temperatures (Kelvin)     13.66306     1.88901     1.65956
 Rotational constants (GHZ):         284.69192    39.36052    34.57965
 Zero-point vibrational energy      70762.9 (Joules/Mol)
                                   16.91275 (Kcal/Mol)
 Vibrational temperatures:   1759.99  1849.44  2234.04  2669.34  4207.43
          (Kelvin)           4301.42

 Zero-point correction=                           0.026952 (Hartree/Particle)
 Thermal correction to Energy=                    0.029817
 Thermal correction to Enthalpy=                  0.030761
 Thermal correction to Gibbs Free Energy=         0.005959
 Sum of electronic and zero-point Energies=           -114.471584
 Sum of electronic and thermal Energies=              -114.468720
 Sum of electronic and thermal Enthalpies=            -114.467776
 Sum of electronic and thermal Free Energies=         -114.492577

                     E (Thermal)             CV                S
                      KCal/Mol        Cal/Mol-Kelvin    Cal/Mol-Kelvin
 Total                   18.710              6.390             52.200
 Electronic               0.000              0.000              0.000
 Translational            0.889              2.981             36.130
 Rotational               0.889              2.981             15.991
 Vibrational             16.933              0.429              0.079

 Optimization completed.
    -- Stationary point found.
 Normal termination of Gaussian 16 at Thu Feb 22 10:21:51 2024.
